 Entering Gaussian System, Link 0=g09
 Input=glicoseUV.gjf
 Output=glicoseUV.log
 Initial command:
 /home/odonirio/g09/l1.exe "/tmp/Gau-9875.inp" -scrdir="/tmp/"
 Entering Link 1 = /home/odonirio/g09/l1.exe PID=      9877.
  
 Copyright (c) 1988,1990,1992,1993,1995,1998,2003,2009,2013,
            Gaussian, Inc.  All Rights Reserved.
  
 This is part of the Gaussian(R) 09 program.  It is based on
 the Gaussian(R) 03 system (copyright 2003, Gaussian, Inc.),
 the Gaussian(R) 98 system (copyright 1998, Gaussian, Inc.),
 the Gaussian(R) 94 system (copyright 1995, Gaussian, Inc.),
 the Gaussian 92(TM) system (copyright 1992, Gaussian, Inc.),
 the Gaussian 90(TM) system (copyright 1990, Gaussian, Inc.),
 the Gaussian 88(TM) system (copyright 1988, Gaussian, Inc.),
 the Gaussian 86(TM) system (copyright 1986, Carnegie Mellon
 University), and the Gaussian 82(TM) system (copyright 1983,
 Carnegie Mellon University). Gaussian is a federally registered
 trademark of Gaussian, Inc.
  
 This software contains proprietary and confidential information,
 including trade secrets, belonging to Gaussian, Inc.
  
 This software is provided under written license and may be
 used, copied, transmitted, or stored only in accord with that
 written license.
  
 The following legend is applicable only to US Government
 contracts under FAR:
  
                    RESTRICTED RIGHTS LEGEND
  
 Use, reproduction and disclosure by the US Government is
 subject to restrictions as set forth in subparagraphs (a)
 and (c) of the Commercial Computer Software - Restricted
 Rights clause in FAR 52.227-19.
  
 Gaussian, Inc.
 340 Quinnipiac St., Bldg. 40, Wallingford CT 06492
  
  
 ---------------------------------------------------------------
 Warning -- This program may not be used in any manner that
 competes with the business of Gaussian, Inc. or will provide
 assistance to any competitor of Gaussian, Inc.  The licensee
 of this program is prohibited from giving any competitor of
 Gaussian, Inc. access to this program.  By using this program,
 the user acknowledges that Gaussian, Inc. is engaged in the
 business of creating and licensing software in the field of
 computational chemistry and represents and warrants to the
 licensee that it is not a competitor of Gaussian, Inc. and that
 it will not use this program in any manner prohibited above.
 ---------------------------------------------------------------
  

 Cite this work as:
 Gaussian 09, Revision D.01,
 M. J. Frisch, G. W. Trucks, H. B. Schlegel, G. E. Scuseria, 
 M. A. Robb, J. R. Cheeseman, G. Scalmani, V. Barone, B. Mennucci, 
 G. A. Petersson, H. Nakatsuji, M. Caricato, X. Li, H. P. Hratchian, 
 A. F. Izmaylov, J. Bloino, G. Zheng, J. L. Sonnenberg, M. Hada, 
 M. Ehara, K. Toyota, R. Fukuda, J. Hasegawa, M. Ishida, T. Nakajima, 
 Y. Honda, O. Kitao, H. Nakai, T. Vreven, J. A. Montgomery, Jr., 
 J. E. Peralta, F. Ogliaro, M. Bearpark, J. J. Heyd, E. Brothers, 
 K. N. Kudin, V. N. Staroverov, T. Keith, R. Kobayashi, J. Normand, 
 K. Raghavachari, A. Rendell, J. C. Burant, S. S. Iyengar, J. Tomasi, 
 M. Cossi, N. Rega, J. M. Millam, M. Klene, J. E. Knox, J. B. Cross, 
 V. Bakken, C. Adamo, J. Jaramillo, R. Gomperts, R. E. Stratmann, 
 O. Yazyev, A. J. Austin, R. Cammi, C. Pomelli, J. W. Ochterski, 
 R. L. Martin, K. Morokuma, V. G. Zakrzewski, G. A. Voth, 
 P. Salvador, J. J. Dannenberg, S. Dapprich, A. D. Daniels, 
 O. Farkas, J. B. Foresman, J. V. Ortiz, J. Cioslowski, 
 and D. J. Fox, Gaussian, Inc., Wallingford CT, 2013.
 
 ******************************************
 Gaussian 09:  ES64L-G09RevD.01 24-Apr-2013
                15-Dec-2020 
 ******************************************
 %chk=glicoseUV.chk
 %mem=60Gb
 %nproc=40
 Will use up to   40 processors via shared memory.
 ----------------------------------------------------------------------
 # opt m062x/6-311+G(2d,p) scrf=(iefpcm,solvent=water) td=(singlets,nst
 ates=60,root=1)
 ----------------------------------------------------------------------
 1/14=-1,18=20,19=15,26=3,38=1/1,3;
 2/9=110,12=2,17=6,18=5,40=1/2;
 3/5=4,6=6,7=112,11=9,16=1,25=1,30=1,70=2201,71=1,72=1,74=-55/1,2,8,3;
 4//1;
 5/5=2,38=5,53=1/2;
 8/6=1,10=2,107=1,108=60/1;
 9/8=1,15=2,41=60,42=1,48=1,70=2/14;
 10/5=4/2;
 6/7=2,8=2,9=2,10=2/1;
 7/12=6,13=5,14=1/1,2,3,16;
 1/14=-1,18=20,19=15,26=3/3(2);
 2/9=110/2;
 99//99;
 2/9=110/2;
 3/5=4,6=6,7=112,11=9,16=1,25=1,30=1,70=2205,71=1,72=1,74=-55/1,2,8,3;
 4/5=5,16=3,69=1/1;
 5/5=2,38=5,53=1/2;
 8/6=1,10=2,107=1,108=60/1;
 9/8=1,15=2,41=60,42=1,48=1,49=4,70=2/14;
 10/5=4/2;
 7/12=6,13=5,14=1/1,2,3,16;
 1/14=-1,18=20,19=15,26=3/3(-8);
 2/9=110/2;
 6/7=2,8=2,9=2,10=2/1;
 99//99;
 -------------------------------------
 calculo DFT do espectro UV da glicose
 -------------------------------------
 Symbolic Z-matrix:
 Charge =  0 Multiplicity = 1
 O
 O                    1    r2
 O                    2    r3       1    a3
 O                    2    r4       1    a4       3    d4       0
 O                    1    r5       2    a5       3    d5       0
 O                    3    r6       2    a6       1    d6       0
 C                    1    r7       2    a7       3    d7       0
 C                    2    r8       1    a8       3    d8       0
 C                    3    r9       2    a9       1    d9       0
 C                    4    r10      2    a10      1    d10      0
 C                    5    r11      1    a11      2    d11      0
 C                    6    r12      3    a12      2    d12      0
 H                    1    r13      2    a13      3    d13      0
 H                    2    r14      1    a14      3    d14      0
 H                    3    r15      2    a15      1    d15      0
 H                    4    r16      2    a16      1    d16      0
 H                    6    r17      3    a17      2    d17      0
 H                    7    r18      1    a18      2    d18      0
 H                    8    r19      2    a19      1    d19      0
 H                    9    r20      3    a20      2    d20      0
 H                    10   r21      4    a21      2    d21      0
 H                    11   r22      5    a22      1    d22      0
 H                    12   r23      6    a23      3    d23      0
 H                    12   r24      6    a24      3    d24      0
       Variables:
  r2                    2.583                    
  r3                    3.6031                   
  a3                   89.52                     
  r4                    2.9138                   
  a4                  100.                       
  d4                   67.29                     
  r5                    2.2255                   
  a5                   79.93                     
  d5                  307.17                     
  r6                    3.066                    
  a6                  113.46                     
  d6                   63.09                     
  r7                    1.393                    
  a7                   66.83                     
  d7                  346.82                     
  r8                    1.4309                   
  a8                   67.48                     
  d8                  353.4                      
  r9                    1.4298                   
  a9                   28.83                     
  d9                  116.68                     
  r10                   1.4343                   
  a10                  86.24                     
  d10                 291.46                     
  r11                   1.4278                   
  a11                 153.81                     
  d11                  46.12                     
  r12                   1.4324                   
  a12                  71.53                     
  d12                 314.03                     
  r13                   1.0015                   
  a13                  49.46                     
  d13                 195.31                     
  r14                   0.9949                   
  a14                 116.83                     
  d14                  95.95                     
  r15                   0.9901                   
  a15                 139.09                     
  d15                  98.09                     
  r16                   0.993                    
  a16                  70.78                     
  d16                  44.18                     
  r17                   0.9797                   
  a17                 157.49                     
  d17                  53.82                     
  r18                   1.1064                   
  a18                 106.56                     
  d18                 143.93                     
  r19                   1.1197                   
  a19                 103.76                     
  d19                 261.07                     
  r20                   1.1183                   
  a20                 107.48                     
  d20                 101.01                     
  r21                   1.1147                   
  a21                 104.68                     
  d21                 212.32                     
  r22                   1.1188                   
  a22                 101.52                     
  d22                 198.65                     
  r23                   1.1027                   
  a23                 111.12                     
  d23                 200.41                     
  r24                   1.1116                   
  a24                 103.15                     
  d24                 317.26                     
 

 GradGradGradGradGradGradGradGradGradGradGradGradGradGradGradGradGradGrad
 Berny optimization.
 Initialization pass.
                           ----------------------------
                           !    Initial Parameters    !
                           ! (Angstroms and Degrees)  !
 --------------------------                            --------------------------
 ! Name  Definition              Value          Derivative Info.                !
 --------------------------------------------------------------------------------
 ! R1    R(1,7)                  1.393          estimate D2E/DX2                !
 ! R2    R(1,13)                 1.0015         estimate D2E/DX2                !
 ! R3    R(2,8)                  1.4309         estimate D2E/DX2                !
 ! R4    R(2,14)                 0.9949         estimate D2E/DX2                !
 ! R5    R(3,9)                  1.4298         estimate D2E/DX2                !
 ! R6    R(3,15)                 0.9901         estimate D2E/DX2                !
 ! R7    R(4,10)                 1.4343         estimate D2E/DX2                !
 ! R8    R(4,16)                 0.993          estimate D2E/DX2                !
 ! R9    R(5,7)                  1.4647         estimate D2E/DX2                !
 ! R10   R(5,11)                 1.4278         estimate D2E/DX2                !
 ! R11   R(6,12)                 1.4324         estimate D2E/DX2                !
 ! R12   R(6,17)                 0.9797         estimate D2E/DX2                !
 ! R13   R(7,8)                  1.5531         estimate D2E/DX2                !
 ! R14   R(7,18)                 1.1064         estimate D2E/DX2                !
 ! R15   R(8,9)                  1.5406         estimate D2E/DX2                !
 ! R16   R(8,19)                 1.1197         estimate D2E/DX2                !
 ! R17   R(9,10)                 1.5479         estimate D2E/DX2                !
 ! R18   R(9,20)                 1.1183         estimate D2E/DX2                !
 ! R19   R(10,11)                1.5417         estimate D2E/DX2                !
 ! R20   R(10,21)                1.1147         estimate D2E/DX2                !
 ! R21   R(11,12)                1.5401         estimate D2E/DX2                !
 ! R22   R(11,22)                1.1188         estimate D2E/DX2                !
 ! R23   R(12,23)                1.1027         estimate D2E/DX2                !
 ! R24   R(12,24)                1.1116         estimate D2E/DX2                !
 ! A1    A(7,1,13)             110.9963         estimate D2E/DX2                !
 ! A2    A(8,2,14)             110.6086         estimate D2E/DX2                !
 ! A3    A(9,3,15)             111.2696         estimate D2E/DX2                !
 ! A4    A(10,4,16)            110.0187         estimate D2E/DX2                !
 ! A5    A(7,5,11)             117.1124         estimate D2E/DX2                !
 ! A6    A(12,6,17)            110.7577         estimate D2E/DX2                !
 ! A7    A(1,7,5)              102.2652         estimate D2E/DX2                !
 ! A8    A(1,7,8)              110.7853         estimate D2E/DX2                !
 ! A9    A(1,7,18)             106.56           estimate D2E/DX2                !
 ! A10   A(5,7,8)              112.6683         estimate D2E/DX2                !
 ! A11   A(5,7,18)             108.4373         estimate D2E/DX2                !
 ! A12   A(8,7,18)             115.1787         estimate D2E/DX2                !
 ! A13   A(2,8,7)              107.2927         estimate D2E/DX2                !
 ! A14   A(2,8,9)              110.9903         estimate D2E/DX2                !
 ! A15   A(2,8,19)             103.76           estimate D2E/DX2                !
 ! A16   A(7,8,9)              114.0126         estimate D2E/DX2                !
 ! A17   A(7,8,19)             109.5551         estimate D2E/DX2                !
 ! A18   A(9,8,19)             110.6847         estimate D2E/DX2                !
 ! A19   A(3,9,8)              104.6911         estimate D2E/DX2                !
 ! A20   A(3,9,10)             112.6914         estimate D2E/DX2                !
 ! A21   A(3,9,20)             107.48           estimate D2E/DX2                !
 ! A22   A(8,9,10)             111.6848         estimate D2E/DX2                !
 ! A23   A(8,9,20)             110.08           estimate D2E/DX2                !
 ! A24   A(10,9,20)            110.0177         estimate D2E/DX2                !
 ! A25   A(4,10,9)             106.6077         estimate D2E/DX2                !
 ! A26   A(4,10,11)            109.5355         estimate D2E/DX2                !
 ! A27   A(4,10,21)            104.68           estimate D2E/DX2                !
 ! A28   A(9,10,11)            112.3764         estimate D2E/DX2                !
 ! A29   A(9,10,21)            111.2833         estimate D2E/DX2                !
 ! A30   A(11,10,21)           111.9177         estimate D2E/DX2                !
 ! A31   A(5,11,10)            109.3205         estimate D2E/DX2                !
 ! A32   A(5,11,12)            111.3427         estimate D2E/DX2                !
 ! A33   A(5,11,22)            101.52           estimate D2E/DX2                !
 ! A34   A(10,11,12)           112.6488         estimate D2E/DX2                !
 ! A35   A(10,11,22)           110.3214         estimate D2E/DX2                !
 ! A36   A(12,11,22)           111.1342         estimate D2E/DX2                !
 ! A37   A(6,12,11)            109.1751         estimate D2E/DX2                !
 ! A38   A(6,12,23)            111.12           estimate D2E/DX2                !
 ! A39   A(6,12,24)            103.15           estimate D2E/DX2                !
 ! A40   A(11,12,23)           111.7709         estimate D2E/DX2                !
 ! A41   A(11,12,24)           112.1518         estimate D2E/DX2                !
 ! A42   A(23,12,24)           109.1654         estimate D2E/DX2                !
 ! D1    D(13,1,7,5)           -79.5001         estimate D2E/DX2                !
 ! D2    D(13,1,7,8)            40.7895         estimate D2E/DX2                !
 ! D3    D(13,1,7,18)          166.7776         estimate D2E/DX2                !
 ! D4    D(14,2,8,7)           -94.4821         estimate D2E/DX2                !
 ! D5    D(14,2,8,9)            30.6834         estimate D2E/DX2                !
 ! D6    D(14,2,8,19)          149.5953         estimate D2E/DX2                !
 ! D7    D(15,3,9,8)           151.0197         estimate D2E/DX2                !
 ! D8    D(15,3,9,10)           29.4414         estimate D2E/DX2                !
 ! D9    D(15,3,9,20)          -91.9358         estimate D2E/DX2                !
 ! D10   D(16,4,10,9)          -97.6369         estimate D2E/DX2                !
 ! D11   D(16,4,10,11)          24.1899         estimate D2E/DX2                !
 ! D12   D(16,4,10,21)         144.3483         estimate D2E/DX2                !
 ! D13   D(11,5,7,1)           170.3873         estimate D2E/DX2                !
 ! D14   D(11,5,7,8)            51.417          estimate D2E/DX2                !
 ! D15   D(11,5,7,18)          -77.2831         estimate D2E/DX2                !
 ! D16   D(7,5,11,10)          -58.1771         estimate D2E/DX2                !
 ! D17   D(7,5,11,12)           66.9296         estimate D2E/DX2                !
 ! D18   D(7,5,11,22)         -174.7306         estimate D2E/DX2                !
 ! D19   D(17,6,12,11)         -79.5257         estimate D2E/DX2                !
 ! D20   D(17,6,12,23)          44.2046         estimate D2E/DX2                !
 ! D21   D(17,6,12,24)         161.0546         estimate D2E/DX2                !
 ! D22   D(1,7,8,2)            -32.3732         estimate D2E/DX2                !
 ! D23   D(1,7,8,9)           -155.6994         estimate D2E/DX2                !
 ! D24   D(1,7,8,19)            79.6479         estimate D2E/DX2                !
 ! D25   D(5,7,8,2)             81.5041         estimate D2E/DX2                !
 ! D26   D(5,7,8,9)            -41.8222         estimate D2E/DX2                !
 ! D27   D(5,7,8,19)          -166.4748         estimate D2E/DX2                !
 ! D28   D(18,7,8,2)          -153.3912         estimate D2E/DX2                !
 ! D29   D(18,7,8,9)            83.2826         estimate D2E/DX2                !
 ! D30   D(18,7,8,19)          -41.3701         estimate D2E/DX2                !
 ! D31   D(2,8,9,3)            158.9469         estimate D2E/DX2                !
 ! D32   D(2,8,9,10)           -78.8154         estimate D2E/DX2                !
 ! D33   D(2,8,9,20)            43.7037         estimate D2E/DX2                !
 ! D34   D(7,8,9,3)            -79.7566         estimate D2E/DX2                !
 ! D35   D(7,8,9,10)            42.4811         estimate D2E/DX2                !
 ! D36   D(7,8,9,20)           165.0002         estimate D2E/DX2                !
 ! D37   D(19,8,9,3)            44.2906         estimate D2E/DX2                !
 ! D38   D(19,8,9,10)          166.5283         estimate D2E/DX2                !
 ! D39   D(19,8,9,20)          -70.9526         estimate D2E/DX2                !
 ! D40   D(3,9,10,4)          -172.3442         estimate D2E/DX2                !
 ! D41   D(3,9,10,11)           67.6458         estimate D2E/DX2                !
 ! D42   D(3,9,10,21)          -58.7663         estimate D2E/DX2                !
 ! D43   D(8,9,10,4)            70.134          estimate D2E/DX2                !
 ! D44   D(8,9,10,11)          -49.876          estimate D2E/DX2                !
 ! D45   D(8,9,10,21)         -176.2882         estimate D2E/DX2                !
 ! D46   D(20,9,10,4)          -52.4208         estimate D2E/DX2                !
 ! D47   D(20,9,10,11)        -172.4308         estimate D2E/DX2                !
 ! D48   D(20,9,10,21)          61.1571         estimate D2E/DX2                !
 ! D49   D(4,10,11,5)          -61.936          estimate D2E/DX2                !
 ! D50   D(4,10,11,12)         173.7185         estimate D2E/DX2                !
 ! D51   D(4,10,11,22)          48.8888         estimate D2E/DX2                !
 ! D52   D(9,10,11,5)           56.3611         estimate D2E/DX2                !
 ! D53   D(9,10,11,12)         -67.9844         estimate D2E/DX2                !
 ! D54   D(9,10,11,22)         167.1859         estimate D2E/DX2                !
 ! D55   D(21,10,11,5)        -177.5695         estimate D2E/DX2                !
 ! D56   D(21,10,11,12)         58.0851         estimate D2E/DX2                !
 ! D57   D(21,10,11,22)        -66.7446         estimate D2E/DX2                !
 ! D58   D(5,11,12,6)         -168.641          estimate D2E/DX2                !
 ! D59   D(5,11,12,23)          68.0144         estimate D2E/DX2                !
 ! D60   D(5,11,12,24)         -54.9608         estimate D2E/DX2                !
 ! D61   D(10,11,12,6)         -45.4156         estimate D2E/DX2                !
 ! D62   D(10,11,12,23)       -168.7601         estimate D2E/DX2                !
 ! D63   D(10,11,12,24)         68.2647         estimate D2E/DX2                !
 ! D64   D(22,11,12,6)          78.9683         estimate D2E/DX2                !
 ! D65   D(22,11,12,23)        -44.3762         estimate D2E/DX2                !
 ! D66   D(22,11,12,24)       -167.3514         estimate D2E/DX2                !
 --------------------------------------------------------------------------------
 Trust Radius=3.00D-01 FncErr=1.00D-07 GrdErr=1.00D-06
 Number of steps in this run=    142 maximum allowed number of steps=    144.
 GradGradGradGradGradGradGradGradGradGradGradGradGradGradGradGradGradGrad

                          Input orientation:                          
 ---------------------------------------------------------------------
 Center     Atomic      Atomic             Coordinates (Angstroms)
 Number     Number       Type             X           Y           Z
 ---------------------------------------------------------------------
      1          8           0        0.000000    0.000000    0.000000
      2          8           0        0.000000    0.000000    2.583000
      3          8           0        3.602974    0.000000    2.552815
      4          8           0        1.107832    2.647060    3.088976
      5          8           0        1.323893    1.746062    0.389131
      6          8           0        4.812868    2.508011    1.269697
      7          6           0        1.246909    0.292001    0.548091
      8          6           0        1.313028   -0.151923    2.034957
      9          6           0        2.353029    0.616059    2.872873
     10          6           0        2.335897    2.131250    2.556987
     11          6           0        2.401850    2.415981    1.043219
     12          6           0        3.758871    2.029929    0.425720
     13          1           0       -0.734082    0.200960    0.650954
     14          1           0       -0.092030    0.883016    3.032043
     15          1           0        4.351969    0.641937    2.637790
     16          1           0        0.425827    2.710089    2.369987
     17          1           0        4.968842    3.463979    1.122694
     18          1           0        1.999945   -0.172945   -0.115900
     19          1           0        1.498160   -1.254893    2.088899
     20          1           0        2.166113    0.450129    3.962885
     21          1           0        3.134847    2.670368    3.116975
     22          1           0        2.155832    3.488010    0.838424
     23          1           0        3.865768    2.416872   -0.601312
     24          1           0        3.918909    0.929926    0.419762
 ---------------------------------------------------------------------
                    Distance matrix (angstroms):
                    1          2          3          4          5
     1  O    0.000000
     2  O    2.583000   0.000000
     3  O    4.415686   3.603100   0.000000
     4  O    4.216158   2.913800   3.676972   0.000000
     5  O    2.225500   3.100724   3.595062   2.854407   0.000000
     6  O    5.573684   5.583779   3.066000   4.129940   3.678166
     7  C    1.393000   2.404351   3.107286   3.467239   1.464749
     8  C    2.426556   1.430900   2.352681   2.997893   2.512211
     9  C    3.764263   2.449551   1.429800   2.392108   2.916334
    10  C    4.066549   3.162170   2.479461   1.434300   2.423245
    11  C    3.562886   3.738552   3.091689   2.431667   1.427800
    12  C    4.293129   4.785768   2.944393   3.808122   2.451741
    13  H    1.001500   2.076551   4.739991   3.914078   2.586727
    14  H    3.159347   0.994900   3.829155   2.134189   3.120043
    15  H    5.129294   4.399400   0.990100   3.840379   3.929988
    16  H    3.625293   2.751597   4.179984   0.993000   2.379004
    17  H    6.160275   6.230653   3.988733   4.409197   4.095730
    18  H    2.010752   3.363592   3.117956   4.361138   2.096352
    19  H    2.860549   2.015782   2.494036   4.046943   3.453305
    20  H    4.538625   2.607440   2.062882   2.590401   3.893647
    21  H    5.164655   4.152500   2.769167   2.027342   3.402209
    22  H    4.185306   4.456161   4.147236   2.621161   1.982011
    23  H    4.598588   5.561050   3.982317   4.612746   2.809287
    24  H    4.049545   4.571893   2.348295   4.239741   2.720501
                    6          7          8          9         10
     6  O    0.000000
     7  C    4.259986   0.000000
     8  C    4.462034   1.553129   0.000000
     9  C    3.492917   2.594828   1.540617   0.000000
    10  C    2.816815   2.933325   2.555710   1.547864   0.000000
    11  C    2.423380   2.467860   2.960271   2.567049   1.541724
    12  C    1.432400   3.057012   3.651338   3.156578   2.564648
    13  H    6.039370   1.985748   2.496127   3.826158   4.096798
    14  H    5.459349   2.883067   2.009842   2.464733   2.771028
    15  H    2.359309   3.759082   3.198247   2.012883   2.507814
    16  H    4.527428   3.136978   3.015042   2.889977   2.004593
    17  H    0.979700   4.923861   5.222254   4.244556   3.281122
    18  H    4.125523   1.106400   2.257981   3.111263   3.544926
    19  H    5.081125   2.197749   1.119700   2.201335   3.519499
    20  H    4.300401   3.539881   2.192516   1.118300   2.198077
    21  H    2.500910   3.977450   3.529180   2.211564   1.114700
    22  H    2.864653   3.335403   3.923152   3.525050   2.196970
    23  H    2.099043   3.562952   4.479409   4.195388   3.520928
    24  H    2.002974   2.750092   3.251133   2.927157   2.918362
                   11         12         13         14         15
    11  C    0.000000
    12  C    1.540080   0.000000
    13  H    3.859308   4.856180   0.000000
    14  H    3.539045   4.789339   2.558714   0.000000
    15  H    3.081047   2.677974   5.478129   4.467961   0.000000
    16  H    2.398225   3.918160   3.255179   2.011141   4.445623
    17  H    2.773817   2.001575   6.587350   5.993280   3.261897
    18  H    2.864895   2.870510   2.864048   3.924405   3.711988
    19  H    3.922425   4.320537   3.028217   2.826461   3.470371
    20  H    3.527689   4.188577   4.409320   2.480537   2.563325
    21  H    2.214150   2.835916   5.210360   3.689793   2.413615
    22  H    1.118800   2.205915   4.380805   4.080544   4.020058
    23  H    2.201713   1.102700   5.257096   5.587320   3.725396
    24  H    2.213261   1.111600   4.715418   4.786840   2.278185
                   16         17         18         19         20
    16  H    0.000000
    17  H    4.771067   0.000000
    18  H    4.119389   4.855480   0.000000
    19  H    4.117037   5.936913   2.506698   0.000000
    20  H    3.267007   5.000526   4.129445   2.620131   0.000000
    21  H    2.810402   2.823209   4.452405   4.375313   2.565827
    22  H    2.437984   2.827439   3.786506   4.948874   4.357876
    23  H    4.554974   2.299000   3.228634   5.130757   5.252504
    24  H    4.378811   2.831589   2.277209   3.663261   3.981987
                   21         22         23         24
    21  H    0.000000
    22  H    2.611283   0.000000
    23  H    3.797916   2.478721   0.000000
    24  H    3.304368   3.134887   1.804557   0.000000
 Stoichiometry    C6H12O6
 Framework group  C1[X(C6H12O6)]
 Deg. of freedom    66
 Full point group                 C1      NOp   1
 Largest Abelian subgroup         C1      NOp   1
 Largest concise Abelian subgroup C1      NOp   1
                         Standard orientation:                         
 ---------------------------------------------------------------------
 Center     Atomic      Atomic             Coordinates (Angstroms)
 Number     Number       Type             X           Y           Z
 ---------------------------------------------------------------------
      1          8           0       -2.327925    1.648308   -0.244136
      2          8           0       -2.377221   -0.921635    0.010533
      3          8           0        0.782223   -1.122388   -1.709915
      4          8           0       -0.143454   -1.291280    1.844620
      5          8           0       -0.335507    1.311390    0.688391
      6          8           0        3.072791    0.270723   -0.222336
      7          6           0       -1.104840    1.045702   -0.529405
      8          6           0       -1.288591   -0.472217   -0.802107
      9          6           0       -0.023691   -1.313116   -0.544388
     10          6           0        0.695499   -0.880538    0.756198
     11          6           0        0.919051    0.643375    0.824231
     12          6           0        1.935058    1.140970   -0.220745
     13          1           0       -2.887368    1.063209    0.345512
     14          1           0       -2.042111   -1.294217    0.870015
     15          1           0        1.745782   -1.205260   -1.497819
     16          1           0       -0.697383   -0.527366    2.153889
     17          1           0        3.671771    0.480931    0.523886
     18          1           0       -0.655398    1.622140   -1.359973
     19          1           0       -1.657381   -0.623053   -1.848515
     20          1           0       -0.288114   -2.398478   -0.492764
     21          1           0        1.644376   -1.447174    0.901500
     22          1           0        1.222470    0.945808    1.857762
     23          1           0        2.234340    2.185891   -0.034954
     24          1           0        1.546836    1.051568   -1.258505
 ---------------------------------------------------------------------
 Rotational constants (GHZ):      1.3240493      0.7890289      0.7203033
 Standard basis: 6-311+G(2d,p) (5D, 7F)
 There are   420 symmetry adapted cartesian basis functions of A   symmetry.
 There are   396 symmetry adapted basis functions of A   symmetry.
   396 basis functions,   600 primitive gaussians,   420 cartesian basis functions
    48 alpha electrons       48 beta electrons
       nuclear repulsion energy       854.8253023163 Hartrees.
 NAtoms=   24 NActive=   24 NUniq=   24 SFac= 1.00D+00 NAtFMM=   60 NAOKFM=F Big=F
 Integral buffers will be    131072 words long.
 Regular integral format.
 Two-electron integral symmetry is turned on.
 ------------------------------------------------------------------------------
 Polarizable Continuum Model (PCM)
 =================================
 Model                : PCM (using non-symmetric T matrix).
 Atomic radii         : UFF (Universal Force Field).
 Polarization charges : Total charges.
 Charge compensation  : None.
 Solution method      : On-the-fly selection.
 Cavity type          : Scaled VdW (van der Waals Surface) (Alpha=1.100).
 Cavity algorithm     : GePol (No added spheres)
                        Default sphere list used, NSphG=   24.
                        Lebedev-Laikov grids with approx.  5.0 points / Ang**2.
                        Smoothing algorithm: Karplus/York (Gamma=1.0000).
                        Polarization charges: spherical gaussians, with
                                              point-specific exponents (IZeta= 3).
                        Self-potential: point-specific (ISelfS= 7).
                        Self-field    : sphere-specific E.n sum rule (ISelfD= 2).
 1st derivatives      : Analytical E(r).r(x)/FMM algorithm (CHGder, D1EAlg=3).
                        Cavity 1st derivative terms included.
 Solvent              : Water, Eps=  78.355300 Eps(inf)=   1.777849
 ------------------------------------------------------------------------------
 One-electron integrals computed using PRISM.
 NBasis=   396 RedAO= T EigKep=  6.70D-06  NBF=   396
 NBsUse=   396 1.00D-06 EigRej= -1.00D+00 NBFU=   396
 ExpMin= 4.38D-02 ExpMax= 8.59D+03 ExpMxC= 1.30D+03 IAcc=2 IRadAn=         4 AccDes= 0.00D+00
 Harris functional with IExCor= 1009 and IRadAn=       4 diagonalized for initial guess.
 HarFok:  IExCor= 1009 AccDes= 0.00D+00 IRadAn=         4 IDoV= 1 UseB2=F ITyADJ=14
 ICtDFT=  3500011 ScaDFX=  1.000000  1.000000  1.000000  1.000000
 FoFCou: FMM=F IPFlag=           0 FMFlag=      100000 FMFlg1=           0
         NFxFlg=           0 DoJE=T BraDBF=F KetDBF=T FulRan=T
         wScrn=  0.000000 ICntrl=     500 IOpCl=  0 I1Cent=   200000004 NGrid=           0
         NMat0=    1 NMatS0=      1 NMatT0=    0 NMatD0=    1 NMtDS0=    0 NMtDT0=    0
 Petite list used in FoFCou.
 Keep R1 ints in memory in canonical form, NReq=3127367587.
 Requested convergence on RMS density matrix=1.00D-08 within 128 cycles.
 Requested convergence on MAX density matrix=1.00D-06.
 Requested convergence on             energy=1.00D-06.
 No special actions if energy rises.
 Inv3:  Mode=1 IEnd=     7902387.
 Iteration    1 A*A^-1 deviation from unit magnitude is 5.33D-15 for   1620.
 Iteration    1 A*A^-1 deviation from orthogonality  is 3.67D-15 for   1601   1146.
 Iteration    1 A^-1*A deviation from unit magnitude is 5.55D-15 for   1620.
 Iteration    1 A^-1*A deviation from orthogonality  is 3.45D-14 for    865    820.
 Error on total polarization charges =  0.01185
 SCF Done:  E(RM062X) =  -687.149078641     A.U. after   12 cycles
            NFock= 12  Conv=0.62D-08     -V/T= 2.0044
 DoSCS=F DFT=T ScalE2(SS,OS)=  1.000000  1.000000
 ExpMin= 4.38D-02 ExpMax= 8.59D+03 ExpMxC= 1.30D+03 IAcc=3 IRadAn=         5 AccDes= 0.00D+00
 HarFok:  IExCor=  205 AccDes= 0.00D+00 IRadAn=         5 IDoV=-2 UseB2=F ITyADJ=14
 ICtDFT= 12500011 ScaDFX=  1.000000  1.000000  1.000000  1.000000
 Range of M.O.s used for correlation:    13   396
 NBasis=   396 NAE=    48 NBE=    48 NFC=    12 NFV=     0
 NROrb=    384 NOA=    36 NOB=    36 NVA=   348 NVB=   348

 **** Warning!!: The largest alpha MO coefficient is  0.64057288D+02

 Would need an additional          8275000000 words for in-memory AO integral storage.
 NEqPCM:  Using equilibrium solvation (IEInf=0, Eps=  78.3553, EpsInf=   1.7778)
 Orbital symmetries:
       Occupied  (A) (A) (A) (A) (A) (A) (A) (A) (A) (A) (A) (A)
                 (A) (A) (A) (A) (A) (A) (A) (A) (A) (A) (A) (A)
                 (A) (A) (A) (A) (A) (A) (A) (A) (A) (A) (A) (A)
                 (A) (A) (A) (A) (A) (A) (A) (A) (A) (A) (A) (A)
       Virtual   (A) (A) (A) (A) (A) (A) (A) (A) (A) (A) (A) (A)
                 (A) (A) (A) (A) (A) (A) (A) (A) (A) (A) (A) (A)
                 (A) (A) (A) (A) (A) (A) (A) (A) (A) (A) (A) (A)
                 (A) (A) (A) (A) (A) (A) (A) (A) (A) (A) (A) (A)
                 (A) (A) (A) (A) (A) (A) (A) (A) (A) (A) (A) (A)
                 (A) (A) (A) (A) (A) (A) (A) (A) (A) (A) (A) (A)
                 (A) (A) (A) (A) (A) (A) (A) (A) (A) (A) (A) (A)
                 (A) (A) (A) (A) (A) (A) (A) (A) (A) (A) (A) (A)
                 (A) (A) (A) (A) (A) (A) (A) (A) (A) (A) (A) (A)
                 (A) (A) (A) (A) (A) (A) (A) (A) (A) (A) (A) (A)
                 (A) (A) (A) (A) (A) (A) (A) (A) (A) (A) (A) (A)
                 (A) (A) (A) (A) (A) (A) (A) (A) (A) (A) (A) (A)
                 (A) (A) (A) (A) (A) (A) (A) (A) (A) (A) (A) (A)
                 (A) (A) (A) (A) (A) (A) (A) (A) (A) (A) (A) (A)
                 (A) (A) (A) (A) (A) (A) (A) (A) (A) (A) (A) (A)
                 (A) (A) (A) (A) (A) (A) (A) (A) (A) (A) (A) (A)
                 (A) (A) (A) (A) (A) (A) (A) (A) (A) (A) (A) (A)
                 (A) (A) (A) (A) (A) (A) (A) (A) (A) (A) (A) (A)
                 (A) (A) (A) (A) (A) (A) (A) (A) (A) (A) (A) (A)
                 (A) (A) (A) (A) (A) (A) (A) (A) (A) (A) (A) (A)
                 (A) (A) (A) (A) (A) (A) (A) (A) (A) (A) (A) (A)
                 (A) (A) (A) (A) (A) (A) (A) (A) (A) (A) (A) (A)
                 (A) (A) (A) (A) (A) (A) (A) (A) (A) (A) (A) (A)
                 (A) (A) (A) (A) (A) (A) (A) (A) (A) (A) (A) (A)
                 (A) (A) (A) (A) (A) (A) (A) (A) (A) (A) (A) (A)
                 (A) (A) (A) (A) (A) (A) (A) (A) (A) (A) (A) (A)
                 (A) (A) (A) (A) (A) (A) (A) (A) (A) (A) (A) (A)
                 (A) (A) (A) (A) (A) (A) (A) (A) (A) (A) (A) (A)
                 (A) (A) (A) (A) (A) (A) (A) (A) (A) (A) (A) (A)
   240 initial guesses have been made.
 Convergence on wavefunction:    0.000001000000000
 Iteration     1 Dimension   240 NMult     0 NNew    240
 CISAX will form   240 AO SS matrices at one time.
 New state      3 was old state      6
 New state      4 was old state      5
 New state      5 was old state      3
 New state      6 was old state      4
 New state      7 was old state     12
 New state      8 was old state      9
 New state      9 was old state     15
 New state     10 was old state      8
 New state     11 was old state      7
 New state     12 was old state     11
 New state     13 was old state     14
 New state     14 was old state     20
 New state     15 was old state     18
 New state     16 was old state     13
 New state     18 was old state     27
 New state     19 was old state     26
 New state     20 was old state     16
 New state     21 was old state     19
 New state     22 was old state     23
 New state     23 was old state     22
 New state     24 was old state     21
 New state     25 was old state     28
 New state     26 was old state     31
 New state     27 was old state     29
 New state     28 was old state     36
 New state     29 was old state     25
 New state     31 was old state     24
 New state     32 was old state     35
 New state     33 was old state     38
 New state     34 was old state     33
 New state     35 was old state     34
 New state     36 was old state     40
 New state     37 was old state     32
 New state     38 was old state     42
 New state     40 was old state     43
 New state     41 was old state     55
 New state     42 was old state     48
 New state     43 was old state     49
 New state     44 was old state     46
 New state     45 was old state     37
 New state     46 was old state     44
 New state     47 was old state     41
 New state     48 was old state     50
 New state     49 was old state     47
 New state     50 was old state     68
 New state     51 was old state     54
 New state     52 was old state     45
 New state     53 was old state     61
 New state     54 was old state     63
 New state     55 was old state     52
 New state     56 was old state     51
 New state     58 was old state     62
 New state     59 was old state     53
 New state     60 was old state     58
 Iteration     2 Dimension   360 NMult   240 NNew    120
 New state     16 was old state     17
 New state     17 was old state     16
 New state     20 was old state     22
 New state     21 was old state     20
 New state     22 was old state     21
 New state     45 was old state     46
 New state     46 was old state     45
 New state     49 was old state     50
 New state     50 was old state     49
 New state     56 was old state     57
 New state     57 was old state     56
 Iteration     3 Dimension   480 NMult   360 NNew    120
 Iteration     4 Dimension   600 NMult   480 NNew    120
 Iteration     5 Dimension   720 NMult   600 NNew    120
 Iteration     6 Dimension   840 NMult   720 NNew    120
 Iteration     7 Dimension   960 NMult   840 NNew    120
 Davidson failed to converge within maximum sub-space dimensions.
  Restart with updated initial guess:
 Iteration     1 Dimension   240 NMult   960 NNew    240
 Iteration     2 Dimension   360 NMult  1200 NNew    120
 Iteration     3 Dimension   396 NMult  1320 NNew     36
 Iteration     4 Dimension   398 NMult  1356 NNew      2
 Iteration     5 Dimension   400 NMult  1358 NNew      2
 Iteration     6 Dimension   402 NMult  1360 NNew      2
 Iteration     7 Dimension   404 NMult  1362 NNew      2
 ***********************************************************************
 Excited states from <AA,BB:AA,BB> singles matrix:
 ***********************************************************************
 
 Ground to excited state transition densities written to RWF  633
 Ground to excited state transition electric dipole moments (Au):
       state          X           Y           Z        Dip. S.      Osc.
         1        -0.0278      0.1357      0.2653      0.0896      0.0152
         2        -0.1583     -0.0355      0.0475      0.0286      0.0049
         3        -0.0585     -0.0504     -0.0776      0.0120      0.0021
         4        -0.2621     -0.0904     -0.2943      0.1635      0.0295
         5        -0.0250     -0.1824      0.2791      0.1118      0.0207
         6         0.1132      0.3363      0.1351      0.1442      0.0271
         7         0.1703      0.0602     -0.1883      0.0681      0.0131
         8        -0.0788     -0.3949      0.1719      0.1917      0.0370
         9         0.0179      0.1274     -0.2683      0.0885      0.0173
        10        -0.2315      0.1612     -0.1889      0.1152      0.0227
        11        -0.1220     -0.1817     -0.4206      0.2248      0.0445
        12        -0.0481      0.2327     -0.0116      0.0566      0.0113
        13        -0.2005     -0.1296     -0.2355      0.1125      0.0227
        14         0.1115      0.1548      0.1937      0.0739      0.0150
        15        -0.0661      0.0058      0.2519      0.0679      0.0139
        16        -0.0457     -0.1229     -0.0752      0.0229      0.0047
        17        -0.0873      0.0556      0.1350      0.0290      0.0060
        18        -0.1885     -0.2048      0.2045      0.1193      0.0248
        19        -0.1242     -0.0628      0.0554      0.0224      0.0047
        20        -0.1979     -0.1579     -0.1096      0.0761      0.0160
        21        -0.0451      0.0471      0.0461      0.0064      0.0013
        22         0.1119     -0.1499      0.0425      0.0368      0.0078
        23         0.0060     -0.1622     -0.1446      0.0472      0.0101
        24        -0.0709      0.2244     -0.0777      0.0614      0.0132
        25         0.1134      0.1115      0.0611      0.0290      0.0063
        26        -0.0972      0.3235     -0.1823      0.1473      0.0321
        27        -0.0474      0.3788      0.0204      0.1461      0.0320
        28        -0.1294      0.0203      0.2166      0.0641      0.0140
        29        -0.2969     -0.0111     -0.1443      0.1091      0.0241
        30        -0.0061      0.2450      0.0461      0.0622      0.0138
        31        -0.0611     -0.1868      0.1341      0.0566      0.0126
        32         0.0540     -0.2136     -0.0247      0.0492      0.0110
        33        -0.0817      0.2482     -0.0312      0.0693      0.0155
        34        -0.0649     -0.1222     -0.0482      0.0215      0.0048
        35        -0.1898     -0.1759     -0.1152      0.0802      0.0181
        36         0.2671      0.0557      0.0580      0.0778      0.0176
        37        -0.0651     -0.0844     -0.0981      0.0210      0.0048
        38        -0.0627      0.0014     -0.0058      0.0040      0.0009
        39        -0.4470      0.0479     -0.0584      0.2055      0.0470
        40        -0.2210     -0.1745     -0.2982      0.1682      0.0386
        41         0.2400      0.3503     -0.3106      0.2768      0.0636
        42         0.0461     -0.3072     -0.0742      0.1020      0.0235
        43        -0.0582     -0.0119      0.0501      0.0060      0.0014
        44         0.2945     -0.2285      0.2291      0.1914      0.0444
        45        -0.1250     -0.0453     -0.0079      0.0177      0.0041
        46        -0.1209      0.3352     -0.1032      0.1376      0.0322
        47         0.1630     -0.0561      0.1408      0.0495      0.0116
        48        -0.1248      0.3902      0.1324      0.1854      0.0436
        49         0.4950      0.0528     -0.0928      0.2564      0.0604
        50         0.0657      0.0253      0.2790      0.0828      0.0195
        51         0.2384      0.2679     -0.1052      0.1397      0.0331
        52         0.1939      0.3334     -0.1901      0.1849      0.0439
        53        -0.0820     -0.0906     -0.1290      0.0316      0.0075
        54        -0.0468      0.0248     -0.0046      0.0028      0.0007
        55        -0.0897     -0.2176     -0.0860      0.0628      0.0150
        56        -0.0751     -0.1311      0.0771      0.0288      0.0069
        57        -0.1837      0.0027      0.0526      0.0365      0.0088
        58        -0.1134     -0.0175      0.0941      0.0220      0.0053
        59        -0.1610      0.2061      0.3069      0.1626      0.0393
        60        -0.0731      0.2024      0.0400      0.0479      0.0116
 Ground to excited state transition velocity dipole moments (Au):
       state          X           Y           Z        Dip. S.      Osc.
         1         0.0059     -0.0364     -0.0699      0.0062      0.0163
         2         0.0405      0.0092     -0.0123      0.0019      0.0048
         3         0.0185      0.0138      0.0189      0.0009      0.0022
         4         0.0744      0.0264      0.0833      0.0132      0.0324
         5         0.0067      0.0526     -0.0781      0.0089      0.0214
         6        -0.0335     -0.0983     -0.0381      0.0122      0.0290
         7        -0.0503     -0.0172      0.0555      0.0059      0.0136
         8         0.0219      0.1192     -0.0493      0.0171      0.0395
         9        -0.0069     -0.0399      0.0824      0.0084      0.0192
        10         0.0705     -0.0499      0.0602      0.0111      0.0250
        11         0.0362      0.0561      0.1303      0.0214      0.0481
        12         0.0153     -0.0714      0.0035      0.0053      0.0119
        13         0.0612      0.0414      0.0753      0.0111      0.0245
        14        -0.0372     -0.0505     -0.0614      0.0077      0.0169
        15         0.0216     -0.0013     -0.0799      0.0068      0.0149
        16         0.0138      0.0412      0.0237      0.0025      0.0053
        17         0.0266     -0.0169     -0.0413      0.0027      0.0058
        18         0.0612      0.0671     -0.0642      0.0124      0.0265
        19         0.0413      0.0188     -0.0174      0.0024      0.0050
        20         0.0661      0.0509      0.0380      0.0084      0.0177
        21         0.0143     -0.0153     -0.0164      0.0007      0.0015
        22        -0.0376      0.0496     -0.0172      0.0042      0.0087
        23        -0.0012      0.0548      0.0501      0.0055      0.0115
        24         0.0256     -0.0771      0.0254      0.0072      0.0150
        25        -0.0387     -0.0374     -0.0204      0.0033      0.0068
        26         0.0322     -0.1116      0.0622      0.0174      0.0355
        27         0.0167     -0.1320     -0.0073      0.0178      0.0361
        28         0.0437     -0.0064     -0.0738      0.0074      0.0150
        29         0.1043      0.0059      0.0486      0.0133      0.0267
        30         0.0009     -0.0867     -0.0182      0.0078      0.0157
        31         0.0187      0.0666     -0.0468      0.0070      0.0140
        32        -0.0187      0.0758      0.0079      0.0062      0.0123
        33         0.0281     -0.0884      0.0101      0.0087      0.0173
        34         0.0214      0.0424      0.0166      0.0025      0.0050
        35         0.0661      0.0639      0.0374      0.0099      0.0194
        36        -0.0975     -0.0206     -0.0186      0.0103      0.0202
        37         0.0236      0.0295      0.0363      0.0027      0.0054
        38         0.0229     -0.0014      0.0040      0.0005      0.0011
        39         0.1607     -0.0170      0.0189      0.0265      0.0514
        40         0.0792      0.0616      0.1084      0.0218      0.0423
        41        -0.0857     -0.1289      0.1137      0.0369      0.0713
        42        -0.0167      0.1105      0.0276      0.0133      0.0256
        43         0.0232      0.0034     -0.0178      0.0009      0.0017
        44        -0.1082      0.0819     -0.0833      0.0254      0.0485
        45         0.0441      0.0175      0.0053      0.0023      0.0043
        46         0.0399     -0.1200      0.0384      0.0175      0.0332
        47        -0.0603      0.0198     -0.0503      0.0066      0.0124
        48         0.0464     -0.1410     -0.0477      0.0243      0.0460
        49        -0.1808     -0.0186      0.0326      0.0341      0.0644
        50        -0.0223     -0.0068     -0.1023      0.0110      0.0207
        51        -0.0892     -0.0995      0.0407      0.0195      0.0366
        52        -0.0707     -0.1202      0.0710      0.0245      0.0458
        53         0.0294      0.0325      0.0498      0.0044      0.0082
        54         0.0155     -0.0118      0.0002      0.0004      0.0007
        55         0.0300      0.0816      0.0335      0.0087      0.0161
        56         0.0272      0.0482     -0.0262      0.0037      0.0069
        57         0.0689     -0.0015     -0.0176      0.0051      0.0094
        58         0.0429      0.0091     -0.0311      0.0029      0.0053
        59         0.0605     -0.0752     -0.1170      0.0230      0.0422
        60         0.0277     -0.0761     -0.0107      0.0067      0.0122
 Ground to excited state transition magnetic dipole moments (Au):
       state          X           Y           Z
         1        -0.0597     -0.1699     -0.1156
         2        -0.1164      0.5850      0.4869
         3         0.5180      0.0278      0.3787
         4        -0.2991      0.5994      0.1427
         5        -0.1984     -0.2496     -0.0969
         6         0.1924     -0.4310      0.2596
         7         0.1079     -0.2887     -0.1529
         8         0.3343     -0.3122      0.0359
         9        -0.2200     -0.2204     -0.3120
        10        -0.0045     -0.5234     -0.0145
        11         0.5218      0.2568     -0.7689
        12         0.2725     -0.6851      0.2837
        13        -0.1026     -0.0762     -0.1520
        14         0.2330     -0.2226     -0.4028
        15         0.1817      0.0537     -0.5741
        16         0.1380     -0.1822      0.8216
        17         0.3249      0.0619      0.0416
        18        -0.3156     -0.1873     -0.0670
        19        -0.7117     -0.6135      0.2271
        20         0.3066      0.2635      0.0001
        21        -0.2175      0.2425     -0.0791
        22         0.5419      0.1722     -0.3835
        23        -0.2324      0.2718      0.4292
        24        -0.5093      0.1592     -0.2276
        25         0.3044      0.0977      0.2241
        26        -0.0783     -0.0073     -0.1738
        27         0.5629     -0.0800      0.5443
        28         0.1277     -0.0016      0.5351
        29         0.2228     -0.0493      0.4040
        30         0.4127      0.2363     -0.0126
        31         0.1009     -0.3018      0.0483
        32        -0.0955     -0.5855     -0.0516
        33         0.4312      0.1894     -0.1445
        34        -0.2023     -0.4340      0.1787
        35         0.1159      0.1059     -0.2824
        36        -0.1735     -0.0048      0.0410
        37         0.2044     -0.2634      0.3894
        38         0.0438      0.0138     -0.5222
        39        -0.2737      0.5057      0.2898
        40        -0.0775      0.0490      0.1539
        41        -0.0637     -0.2086      0.5924
        42        -0.1318     -0.3562      0.0771
        43         0.0208      0.3806     -0.0630
        44        -0.1826     -0.1306      0.3467
        45         0.0276      0.2063      0.0279
        46         0.0197     -0.3379      0.0644
        47        -0.1527     -0.1089     -0.3541
        48        -0.2429     -0.0146     -0.1832
        49         0.2793     -0.7711     -0.2232
        50        -0.5733     -0.1877      0.1845
        51         0.0490     -0.3724     -0.2080
        52         0.1092     -0.0910     -0.4139
        53         0.0797      0.1347     -0.4100
        54         0.3505      0.0669     -0.1423
        55        -0.4640     -0.3610      0.2678
        56         0.1286     -0.2412     -0.0354
        57        -0.1968     -0.5651      0.3631
        58         0.5395      0.2402     -0.5306
        59         0.0706      0.1518     -0.0221
        60         0.0151      0.3378      0.0520
 Ground to excited state transition velocity quadrupole moments (Au):
       state          XX          YY          ZZ          XY          XZ          YZ
         1         0.1295      0.3947     -0.3243      0.1782     -0.1440      0.1175
         2         0.3491     -0.3707      0.1791     -0.0492     -0.2797     -0.1466
         3         0.0336      0.4144     -0.4036      0.3822     -0.0477     -0.1839
         4        -0.3226      0.0705      0.4026     -0.0049      0.2274      0.0815
         5         0.0575     -0.1003      0.2563     -0.1449      0.2876     -0.1337
         6        -0.1638     -0.1052      0.1421     -0.0544      0.2420     -0.2152
         7        -0.2241     -0.3273      0.3821      0.1776      0.3672     -0.0602
         8         0.2772     -0.4023      0.0544      0.0962      0.0220     -0.0184
         9         0.1680     -0.4103     -0.0129     -0.2607     -0.0288     -0.0666
        10         0.1701      0.1985     -0.1659      0.0056      0.3607     -0.0627
        11        -0.0995      0.1302     -0.1398     -0.3214     -0.3410      0.0067
        12         0.4684     -0.1080     -0.1540      0.2605      0.0050      0.0958
        13         0.0087     -0.2358      0.1266     -0.3204     -0.0592      0.2360
        14         0.0870     -0.1579     -0.3466     -0.2719      0.1393     -0.2129
        15        -0.1551      0.0835     -0.0315      0.0373      0.0080     -0.1884
        16         0.2341     -0.3975      0.1490      0.2139      0.3492     -0.2122
        17        -0.2010     -0.2208      0.0514     -0.2978      0.1217      0.2388
        18        -0.0403      0.0523      0.0849     -0.1370      0.3057     -0.0437
        19         0.1520     -0.3088      0.0049     -0.2076      0.4928     -0.1000
        20        -0.1281      0.0286     -0.2042     -0.3159     -0.2114     -0.2060
        21        -0.2536      0.0641      0.1456      0.0615      0.1166      0.2040
        22         0.1245     -0.5418      0.0590     -0.3351     -0.0952     -0.0154
        23         0.1540     -0.1798     -0.1615     -0.0724     -0.0881     -0.0532
        24        -0.1419     -0.0158     -0.5081     -0.1134     -0.2690     -0.0158
        25        -0.3011      0.4398      0.0131      0.2993     -0.0697     -0.3150
        26         0.3994     -0.1555     -0.0787     -0.0487      0.1531      0.2279
        27         0.0998      0.4089     -0.1513      0.1862      0.0034     -0.0088
        28        -0.5077      0.4404     -0.2156      0.3468     -0.2680     -0.0581
        29        -0.3443     -0.2081     -0.3016      0.1378     -0.1254     -0.1619
        30        -0.1758     -0.0645      0.2682      0.3322      0.1457     -0.0019
        31         0.1736      0.1812      0.3698      0.1217      0.3633      0.0068
        32        -0.1310      0.0281     -0.2020      0.1907      0.0912      0.0156
        33        -0.5645     -0.1911      0.5984     -0.3044      0.0483      0.1003
        34         0.0870      0.1125      0.1401      0.3733      0.1991      0.0034
        35        -0.1660      0.4901     -0.2132      0.1738     -0.1925     -0.0475
        36         0.2222      0.2027     -0.2385     -0.0368     -0.0430     -0.0054
        37        -0.1473      0.3783     -0.0654      0.1379     -0.1572      0.2109
        38         0.3141     -0.1925     -0.0690     -0.1153     -0.2157      0.0009
        39         0.2257     -0.2478     -0.1305      0.3521     -0.1033      0.1551
        40         0.0136      0.4266     -0.0954      0.0473      0.0427      0.0386
        41        -0.1916      0.0254     -0.2580     -0.1433     -0.0617     -0.0312
        42        -0.0593      0.1449     -0.1290     -0.0210      0.1283      0.0723
        43         0.0498     -0.2554     -0.1265      0.2842     -0.3321      0.1630
        44        -0.3377     -0.1387      0.0207      0.3642      0.0148      0.1354
        45        -0.1860      0.2108     -0.2235      0.1080      0.0221      0.0359
        46        -0.2312     -0.1779      0.2513     -0.0173      0.0724      0.2155
        47         0.0316     -0.1600      0.2558     -0.2555      0.2403     -0.1869
        48        -0.1219     -0.1973     -0.0316      0.2145     -0.1298      0.0426
        49         0.0763      0.4422     -0.2134     -0.2730      0.4715     -0.1041
        50         0.1616      0.0088     -0.3786     -0.2169      0.0630     -0.1338
        51        -0.0486      0.2517     -0.1028     -0.1341      0.1265     -0.1015
        52         0.2799      0.0497     -0.0644      0.1137      0.2620      0.1152
        53         0.3541     -0.3758     -0.0498     -0.0134     -0.0282      0.2756
        54         0.0993      0.0324      0.0596     -0.1170     -0.0197     -0.0672
        55         0.1947     -0.1544     -0.0150      0.0155      0.0022     -0.2921
        56        -0.0210     -0.0639      0.1314      0.2039     -0.0652     -0.0834
        57        -0.1677     -0.4306      0.2096      0.3760      0.3637     -0.2447
        58        -0.1867      0.0390      0.0051      0.0358     -0.1305      0.1310
        59        -0.0477      0.0324      0.3552     -0.0514      0.1797     -0.0233
        60         0.2165     -0.0461     -0.0803      0.2791      0.0310      0.1624
 <0|del|b> * <b|rxdel|0> + <0|del|b> * <b|delr+rdel|0>
 Rotatory Strengths (R) in cgs (10**-40 erg-esu-cm/Gauss)
       state          XX          YY          ZZ    R(velocity)    E-M Angle
         1        -4.7581     28.9339     14.3808     12.8522       34.67
         2         3.4729    -23.5250      5.4863     -4.8553       99.22
         3        20.4663      8.0965     16.8345     15.1324       26.62
         4        27.8051     -5.0991     -8.5410      4.7217       86.05
         5       -11.9267     -7.6204      1.9956     -5.8505      102.64
         6        73.1962    -14.0568      6.1873     21.7756       64.10
         7        15.4642    -25.4037    -12.0001     -7.3132      109.80
         8       -56.6212     12.0881    -32.8302    -25.7878      121.83
         9       -47.6881     -2.7278     13.2624    -12.3845      112.37
        10        52.1087     -7.1101     14.6192     19.8726       63.12
        11      -129.2109    -46.6329     16.5723    -53.0905      118.29
        12        60.4846      6.7707     60.6174     42.6242       20.56
        13       -42.3760     24.3537    -30.7560    -16.2595      175.29
        14        69.4869      8.4892    -14.4243     21.1839       52.92
        15        49.3611     56.1288      9.1193     38.2031        6.46
        16         3.0216     15.2990     13.3703     10.5636       70.83
        17        13.1849      1.1175     -0.9203      4.4607       70.15
        18       -22.7027    -30.0511     -9.8676    -20.8738      131.68
        19       -23.8571    -46.4220    -31.0965    -33.7919      162.78
        20        13.6420     20.9057     40.9498     25.1658       24.65
        21        -1.8257      2.3590    -12.8367     -4.1011      128.22
        22        28.5063    -21.1049    -19.0654     -3.8880       96.79
        23        41.5701     28.1818     11.3747     27.0422       27.82
        24       -45.7490    -17.9292     -4.5632    -22.7471      129.00
        25       -18.4601      2.1216    -27.3231    -14.5539      152.92
        26         4.4072     -3.2060    -28.3044     -9.0344      119.84
        27         6.1252      7.1879     21.2296     11.5142       81.21
        28       -71.8783    -11.6806     10.5924    -24.3221      135.78
        29        28.5695     20.5815     41.7535     30.3015       37.23
        30       -14.5313      7.0674    -34.8170    -14.0936      118.14
        31       -55.5241      5.7903      6.2262    -14.5025      139.61
        32       -53.0262     -0.4548    -37.3953    -30.2921      156.99
        33       -17.9258     17.4631    -12.3372     -4.2666       97.59
        34       -18.5891     -7.8695    -15.0977    -13.8521      140.23
        35        15.7048    -13.1227      5.5160      2.6994       83.07
        36        -0.9013     16.6581     18.0889     11.2819       25.97
        37        16.5743     19.5966    -12.9864      7.7281       65.35
        38        -2.9747     -0.6323      1.3036     -0.7678       95.22
        39         1.8627    -20.8588    -78.0393    -32.3451      116.71
        40        22.8112      8.7049     -3.6476      9.2895       59.17
        41        71.7554     94.0976     38.5754     68.1428       34.69
        42       -53.2087      3.7815    -22.2880    -23.9051      141.77
        43        -1.5166     10.6459     -3.2009      1.9761       75.20
        44       -72.1983      6.6632     25.2899    -13.4151      107.55
        45         3.9911      2.4051      3.6737      3.3566       60.25
        46        51.5048     12.6426     24.2646     29.4707       15.84
        47        23.8896     25.5843      0.5354     16.6698       39.98
        48       -17.7846      9.7165      7.1170     -0.3170       90.57
        49         6.9760    -30.1121    -63.8391    -28.9917      106.06
        50         5.0082    -25.2437     10.6323     -3.2011       94.17
        51        35.5484      1.6687     10.9762     16.0644       66.19
        52        20.9760    -52.9372    -20.0063    -17.3225      112.46
        53       -15.6300     -9.1932     -2.2881     -9.0371      118.04
        54        -1.0569      4.3411      5.8602      3.0482       51.81
        55       -19.8681    -14.0334    -33.9514    -22.6176      124.88
        56       -12.6791      7.3779     -8.8394     -4.7136      115.24
        57       -11.3778    -29.6323      3.5313    -12.4929      112.56
        58        18.3245     45.3049     18.0850     27.2381       11.47
        59        10.4104     -0.5603    -18.7484     -2.9661      100.27
        60       -26.1595      7.1379    -31.2860    -16.7692      157.66
 1/2[<0|r|b>*<b|rxdel|0> + (<0|rxdel|b>*<b|r|0>)*]
 Rotatory Strengths (R) in cgs (10**-40 erg-esu-cm/Gauss)
       state          XX          YY          ZZ     R(length)
         1        -1.1739     16.3054     21.6827     12.2714
         2       -13.0360     14.6805    -16.3532     -4.9029
         3        21.4324      0.9903     20.7768     14.3998
         4       -55.4502     38.3218     29.7000      4.1905
         5        -3.5013    -32.1876     19.1326     -5.5187
         6       -15.4095    102.4956    -24.7966     20.7632
         7       -12.9878     12.2883    -20.3601     -7.0199
         8        18.6214    -87.1684     -4.3642    -24.3037
         9         2.7914     19.8501    -59.1908    -12.1831
        10        -0.7307     59.6525     -1.9414     18.9935
        11        45.0230     32.9981   -228.7138    -50.2309
        12         9.2671    112.7375      2.3348     41.4465
        13       -14.5428     -6.9852    -25.3148    -15.6143
        14       -18.3711     24.3653     55.1621     20.3854
        15         8.5001     -0.2216    102.2801     36.8529
        16         4.4629    -15.8411     43.6676     10.7631
        17        20.0679     -2.4361     -3.9757      4.5520
        18       -42.0738    -27.1344      9.6861    -19.8407
        19       -62.5004    -27.2238     -8.9041    -32.8761
        20        42.9013     29.4139      0.0092     24.1081
        21        -6.9401     -8.0756      2.5820     -4.1446
        22       -42.8812     18.2581     11.5339     -4.3631
        23         0.9797     31.1676     43.8781     25.3418
        24       -25.5352    -25.2632    -12.5006    -21.0997
        25       -24.4048     -7.7076     -9.6821    -13.9315
        26        -5.3818      1.6805    -22.4118     -8.7044
        27        18.8558     21.4393     -7.8375     10.8192
        28        11.6834      0.0223    -81.9706    -23.4216
        29        46.7739     -0.3879     41.2279     29.2046
        30         1.7940    -40.9304      0.4102    -12.9087
        31         4.3601    -39.8649     -4.5786    -13.3611
        32         3.6432    -88.4483     -0.8997    -28.5683
        33        24.9074    -33.2432     -3.1877     -3.8411
        34        -9.2908    -37.5114      6.0847    -13.5725
        35        15.5591     13.1731    -23.0088      1.9078
        36        32.7684      0.1873     -1.6807     10.4250
        37         9.4147    -15.7143     27.0165      6.9056
        38         1.9421     -0.0134     -2.1420     -0.0711
        39       -86.5309    -17.1126     11.9691    -30.5582
        40       -12.1152      6.0508     32.4610      8.7989
        41        10.8060     51.6702    130.1099     64.1953
        42         4.2981    -77.3806      4.0498    -23.0109
        43         0.8543      3.2058      2.2315      2.0972
        44        38.0186    -21.1021    -56.1531    -13.0788
        45         2.4433      6.6031      0.1554      3.0673
        46         1.6880     80.0846      4.6969     28.8232
        47        17.5960     -4.3218     35.2680     16.1807
        48       -21.4293      4.0218     17.1528     -0.0849
        49       -97.7807     28.8120    -14.6537    -27.8742
        50        26.6391      3.3646    -36.3993     -2.1319
        51        -8.2693     70.5718    -15.4796     15.6076
        52       -14.9774     21.4460    -55.6509    -16.3941
        53         4.6235      8.6316    -37.3926     -8.0458
        54        11.6057     -1.1746     -0.4597      3.3238
        55       -29.4167    -55.5496     16.2795    -22.8956
        56         6.8316    -22.3622      1.9299     -4.5336
        57       -25.5714      1.0827    -13.4981    -12.6623
        58        43.2449      2.9762     35.3135     27.1782
        59         8.0318    -22.1266      4.7857     -3.1030
        60         0.7793    -48.3424     -1.4710    -16.3447
  1/2[<0|del|b>*<b|r|0> + (<0|r|b>*<b|del|0>)*] (Au)
       state          X           Y           Z        Dip. S.   Osc.(frdel)
         1        -0.0002     -0.0049     -0.0185      0.0236      0.0158
         2        -0.0064     -0.0003     -0.0006      0.0073      0.0049
         3        -0.0011     -0.0007     -0.0015      0.0032      0.0022
         4        -0.0195     -0.0024     -0.0245      0.0464      0.0309
         5        -0.0002     -0.0096     -0.0218      0.0316      0.0210
         6        -0.0038     -0.0331     -0.0051      0.0420      0.0280
         7        -0.0086     -0.0010     -0.0104      0.0200      0.0134
         8        -0.0017     -0.0471     -0.0085      0.0573      0.0382
         9        -0.0001     -0.0051     -0.0221      0.0273      0.0182
        10        -0.0163     -0.0080     -0.0114      0.0358      0.0238
        11        -0.0044     -0.0102     -0.0548      0.0694      0.0463
        12        -0.0007     -0.0166      0.0000      0.0174      0.0116
        13        -0.0123     -0.0054     -0.0177      0.0354      0.0236
        14        -0.0041     -0.0078     -0.0119      0.0238      0.0159
        15        -0.0014      0.0000     -0.0201      0.0216      0.0144
        16        -0.0006     -0.0051     -0.0018      0.0075      0.0050
        17        -0.0023     -0.0009     -0.0056      0.0088      0.0059
        18        -0.0115     -0.0137     -0.0131      0.0384      0.0256
        19        -0.0051     -0.0012     -0.0010      0.0073      0.0048
        20        -0.0131     -0.0080     -0.0042      0.0253      0.0168
        21        -0.0006     -0.0007     -0.0008      0.0021      0.0014
        22        -0.0042     -0.0074     -0.0007      0.0124      0.0082
        23         0.0000     -0.0089     -0.0072      0.0161      0.0108
        24        -0.0018     -0.0173     -0.0020      0.0211      0.0141
        25        -0.0044     -0.0042     -0.0012      0.0098      0.0065
        26        -0.0031     -0.0361     -0.0113      0.0506      0.0337
        27        -0.0008     -0.0500     -0.0001      0.0509      0.0340
        28        -0.0057     -0.0001     -0.0160      0.0218      0.0145
        29        -0.0310     -0.0001     -0.0070      0.0380      0.0254
        30         0.0000     -0.0212     -0.0008      0.0221      0.0147
        31        -0.0011     -0.0124     -0.0063      0.0199      0.0132
        32        -0.0010     -0.0162     -0.0002      0.0174      0.0116
        33        -0.0023     -0.0219     -0.0003      0.0246      0.0164
        34        -0.0014     -0.0052     -0.0008      0.0074      0.0049
        35        -0.0126     -0.0112     -0.0043      0.0281      0.0187
        36        -0.0260     -0.0011     -0.0011      0.0283      0.0188
        37        -0.0015     -0.0025     -0.0036      0.0076      0.0051
        38        -0.0014      0.0000      0.0000      0.0015      0.0010
        39        -0.0718     -0.0008     -0.0011      0.0737      0.0492
        40        -0.0175     -0.0107     -0.0323      0.0606      0.0404
        41        -0.0206     -0.0452     -0.0353      0.1010      0.0674
        42        -0.0008     -0.0340     -0.0020      0.0368      0.0245
        43        -0.0014      0.0000     -0.0009      0.0023      0.0015
        44        -0.0319     -0.0187     -0.0191      0.0696      0.0464
        45        -0.0055     -0.0008      0.0000      0.0063      0.0042
        46        -0.0048     -0.0402     -0.0040      0.0490      0.0327
        47        -0.0098     -0.0011     -0.0071      0.0180      0.0120
        48        -0.0058     -0.0550     -0.0063      0.0671      0.0448
        49        -0.0895     -0.0010     -0.0030      0.0935      0.0623
        50        -0.0015     -0.0002     -0.0285      0.0302      0.0201
        51        -0.0213     -0.0267     -0.0043      0.0522      0.0348
        52        -0.0137     -0.0401     -0.0135      0.0673      0.0449
        53        -0.0024     -0.0029     -0.0064      0.0118      0.0079
        54        -0.0007     -0.0003      0.0000      0.0010      0.0007
        55        -0.0027     -0.0178     -0.0029      0.0233      0.0156
        56        -0.0020     -0.0063     -0.0020      0.0104      0.0069
        57        -0.0127      0.0000     -0.0009      0.0136      0.0091
        58        -0.0049     -0.0002     -0.0029      0.0079      0.0053
        59        -0.0097     -0.0155     -0.0359      0.0611      0.0407
        60        -0.0020     -0.0154     -0.0004      0.0179      0.0119

 Excitation energies and oscillator strengths:
 
 Excited State   1:      Singlet-A      6.9401 eV  178.65 nm  f=0.0152  <S**2>=0.000
      47 -> 49        -0.12758
      48 -> 49         0.45331
      48 -> 50         0.43818
 This state for optimization and/or second-order correction.
 Total Energy, E(TD-HF/TD-KS) =  -686.894033073    
 Copying the excited state density for this state as the 1-particle RhoCI density.
 
 Excited State   2:      Singlet-A      7.0642 eV  175.51 nm  f=0.0049  <S**2>=0.000
      44 -> 50        -0.10596
      45 -> 50         0.10222
      47 -> 50         0.40550
      48 -> 49        -0.34341
      48 -> 50         0.28114
 
 Excited State   3:      Singlet-A      7.2622 eV  170.72 nm  f=0.0021  <S**2>=0.000
      45 -> 50        -0.17556
      46 -> 50         0.11231
      47 -> 50         0.35033
      47 -> 52         0.13141
      48 -> 49         0.29115
      48 -> 50        -0.26419
      48 -> 52        -0.13941
      48 -> 53        -0.19029
 
 Excited State   4:      Singlet-A      7.3651 eV  168.34 nm  f=0.0295  <S**2>=0.000
      46 -> 49        -0.33318
      46 -> 50        -0.22873
      47 -> 49         0.41792
      48 -> 49         0.11250
      48 -> 51        -0.10689
      48 -> 52         0.15467
 
 Excited State   5:      Singlet-A      7.5485 eV  164.25 nm  f=0.0207  <S**2>=0.000
      45 -> 49         0.17474
      45 -> 50         0.12600
      46 -> 49         0.16627
      47 -> 49         0.25836
      48 -> 51         0.44952
      48 -> 52         0.16754
      48 -> 53        -0.21546
 
 Excited State   6:      Singlet-A      7.6703 eV  161.64 nm  f=0.0271  <S**2>=0.000
      45 -> 50        -0.14426
      46 -> 49        -0.17216
      47 -> 51         0.10498
      47 -> 53         0.11986
      48 -> 50         0.10273
      48 -> 51         0.43753
      48 -> 52        -0.30588
      48 -> 53         0.18717
 
 Excited State   7:      Singlet-A      7.8528 eV  157.89 nm  f=0.0131  <S**2>=0.000
      45 -> 50        -0.13048
      46 -> 50         0.32758
      46 -> 52         0.13128
      47 -> 49         0.30397
      47 -> 50        -0.20277
      47 -> 51         0.16811
      48 -> 50         0.21422
      48 -> 51        -0.10087
      48 -> 52        -0.19710
 
 Excited State   8:      Singlet-A      7.8765 eV  157.41 nm  f=0.0370  <S**2>=0.000
      45 -> 49        -0.17462
      45 -> 50        -0.22722
      46 -> 49         0.11931
      46 -> 50         0.13705
      47 -> 50         0.14234
      48 -> 52         0.44031
      48 -> 53         0.22784
      48 -> 56         0.12453
 
 Excited State   9:      Singlet-A      7.9767 eV  155.43 nm  f=0.0173  <S**2>=0.000
      45 -> 49         0.22563
      46 -> 49         0.17308
      47 -> 49         0.15352
      47 -> 50         0.18982
      48 -> 52        -0.11076
      48 -> 53         0.41817
      48 -> 54        -0.12824
      48 -> 55        -0.11207
      48 -> 56        -0.13379
      48 -> 65        -0.10240
 
 Excited State  10:      Singlet-A      8.0514 eV  153.99 nm  f=0.0227  <S**2>=0.000
      46 -> 49         0.19302
      46 -> 50        -0.22859
      47 -> 52         0.45853
      47 -> 53         0.13226
      48 -> 49        -0.12095
      48 -> 50         0.16855
      48 -> 53        -0.13048
 
 Excited State  11:      Singlet-A      8.0809 eV  153.43 nm  f=0.0445  <S**2>=0.000
      42 -> 49        -0.12236
      44 -> 49        -0.19254
      45 -> 49         0.13074
      47 -> 49        -0.16084
      47 -> 51         0.42750
      48 -> 54         0.22828
      48 -> 55        -0.13333
 
 Excited State  12:      Singlet-A      8.1360 eV  152.39 nm  f=0.0113  <S**2>=0.000
      42 -> 49         0.17568
      42 -> 50         0.15114
      44 -> 49         0.13290
      45 -> 49        -0.18216
      45 -> 52         0.16942
      46 -> 49         0.14759
      47 -> 51         0.19690
      47 -> 53        -0.18319
      48 -> 50        -0.12906
      48 -> 54         0.29181
      48 -> 55        -0.12255
      48 -> 56        -0.16196
 
 Excited State  13:      Singlet-A      8.2390 eV  150.48 nm  f=0.0227  <S**2>=0.000
      43 -> 49         0.15201
      44 -> 49        -0.15329
      44 -> 50        -0.11657
      44 -> 51         0.12135
      45 -> 49        -0.18042
      46 -> 49         0.24611
      46 -> 50        -0.19928
      46 -> 52        -0.19419
      47 -> 49         0.10966
      47 -> 52        -0.11734
      47 -> 53        -0.12476
      48 -> 52        -0.14736
      48 -> 54        -0.17333
      48 -> 56         0.24407
 
 Excited State  14:      Singlet-A      8.2614 eV  150.08 nm  f=0.0150  <S**2>=0.000
      43 -> 49        -0.13018
      44 -> 50         0.15127
      46 -> 49         0.11694
      46 -> 52        -0.13240
      47 -> 50         0.10244
      47 -> 52        -0.31084
      47 -> 53         0.36972
      48 -> 57         0.14550
 
 Excited State  15:      Singlet-A      8.3468 eV  148.54 nm  f=0.0139  <S**2>=0.000
      47 -> 51        -0.26860
      48 -> 53         0.11981
      48 -> 54         0.42609
      48 -> 55         0.16119
      48 -> 56         0.27439
 
 Excited State  16:      Singlet-A      8.4208 eV  147.24 nm  f=0.0047  <S**2>=0.000
      42 -> 50         0.13078
      43 -> 50        -0.22450
      44 -> 50        -0.26727
      45 -> 50         0.11368
      45 -> 51        -0.15047
      46 -> 50        -0.12064
      46 -> 51         0.12130
      46 -> 52         0.16179
      48 -> 55         0.12331
      48 -> 57         0.33607
 
 Excited State  17:      Singlet-A      8.4530 eV  146.68 nm  f=0.0060  <S**2>=0.000
      46 -> 51         0.42508
      46 -> 52         0.12690
      46 -> 54        -0.12185
      47 -> 51        -0.18165
      47 -> 52        -0.11618
      47 -> 54         0.19882
      48 -> 55        -0.29103
 
 Excited State  18:      Singlet-A      8.4760 eV  146.28 nm  f=0.0248  <S**2>=0.000
      43 -> 50         0.10210
      44 -> 50         0.15125
      45 -> 49         0.16548
      45 -> 51        -0.17140
      46 -> 51         0.14804
      47 -> 51         0.12525
      47 -> 53        -0.24030
      47 -> 54         0.12169
      47 -> 56         0.15558
      48 -> 55         0.31381
      48 -> 57         0.16210
 
 Excited State  19:      Singlet-A      8.5124 eV  145.65 nm  f=0.0047  <S**2>=0.000
      43 -> 50        -0.17108
      44 -> 49         0.28509
      45 -> 52        -0.14252
      46 -> 53         0.14248
      47 -> 53        -0.11238
      47 -> 55         0.10883
      47 -> 56         0.20315
      48 -> 55        -0.13974
      48 -> 56         0.31436
      48 -> 57        -0.10323
 
 Excited State  20:      Singlet-A      8.5780 eV  144.54 nm  f=0.0160  <S**2>=0.000
      42 -> 49        -0.13495
      42 -> 50        -0.15989
      43 -> 49        -0.15746
      44 -> 49        -0.14337
      45 -> 49        -0.13773
      46 -> 52        -0.16278
      46 -> 53         0.17667
      46 -> 56        -0.13591
      46 -> 57        -0.10226
      47 -> 55         0.25849
      47 -> 56         0.11169
      47 -> 57         0.10699
      48 -> 54         0.13642
      48 -> 57         0.25923
 
 Excited State  21:      Singlet-A      8.6078 eV  144.04 nm  f=0.0013  <S**2>=0.000
      45 -> 49        -0.18042
      45 -> 50         0.32249
      45 -> 51         0.15378
      45 -> 52         0.12325
      46 -> 49        -0.16407
      46 -> 50         0.22784
      47 -> 52         0.17530
      47 -> 53         0.12612
      47 -> 54         0.20524
      48 -> 54        -0.12216
      48 -> 56         0.18271
 
 Excited State  22:      Singlet-A      8.6351 eV  143.58 nm  f=0.0078  <S**2>=0.000
      46 -> 49        -0.11111
      46 -> 52        -0.21627
      46 -> 53        -0.23687
      47 -> 50        -0.12290
      47 -> 52         0.14692
      47 -> 54        -0.10843
      47 -> 55        -0.18552
      48 -> 55        -0.27555
      48 -> 56         0.17884
      48 -> 57         0.28382
 
 Excited State  23:      Singlet-A      8.7087 eV  142.37 nm  f=0.0101  <S**2>=0.000
      43 -> 49        -0.15712
      43 -> 50        -0.10782
      45 -> 51         0.25248
      45 -> 52         0.15849
      45 -> 54        -0.11268
      46 -> 50        -0.11606
      46 -> 51        -0.13260
      46 -> 52         0.16514
      47 -> 53        -0.16064
      47 -> 54         0.18255
      47 -> 56        -0.21313
      47 -> 57        -0.15935
      48 -> 61        -0.11640
 
 Excited State  24:      Singlet-A      8.7611 eV  141.52 nm  f=0.0132  <S**2>=0.000
      43 -> 49         0.20870
      43 -> 50         0.14942
      44 -> 50         0.13797
      44 -> 51         0.11176
      45 -> 51         0.13398
      46 -> 51        -0.11343
[...]
      8          6           0        1.283866   -0.125079    2.053136
      9          6           0        2.333378    0.636488    2.850255
     10          6           0        2.314889    2.155385    2.588709
     11          6           0        2.399465    2.420372    1.066642
     12          6           0        3.742881    1.995007    0.428384
     13          1           0       -0.644338    0.117670    0.556906
     14          1           0       -0.150703    0.756934    3.122717
     15          1           0        4.295709    0.715404    2.628793
     16          1           0        0.434444    2.835302    2.406703
     17          1           0        5.004960    3.357621    1.078226
     18          1           0        2.066235   -0.109031   -0.020003
     19          1           0        1.530566   -1.190056    2.034843
     20          1           0        2.150552    0.475623    3.919406
     21          1           0        3.131460    2.646521    3.116599
     22          1           0        2.213629    3.484478    0.905194
     23          1           0        3.794365    2.421963   -0.575440
     24          1           0        3.825762    0.910061    0.369512
 ---------------------------------------------------------------------
                    Distance matrix (angstroms):
                    1          2          3          4          5
     1  O    0.000000
     2  O    2.695033   0.000000
     3  O    4.349920   3.605824   0.000000
     4  O    4.365067   3.075457   3.690759   0.000000
     5  O    2.268009   3.173874   3.514349   2.871934   0.000000
     6  O    5.519797   5.636502   2.961291   4.186703   3.660105
     7  C    1.371697   2.465196   3.067995   3.520253   1.439862
     8  C    2.438780   1.421146   2.352883   3.057332   2.498093
     9  C    3.752387   2.465667   1.421056   2.440765   2.861740
    10  C    4.120998   3.227564   2.453448   1.427097   2.415649
    11  C    3.583943   3.807834   3.010367   2.431032   1.412209
    12  C    4.230915   4.821644   2.845824   3.823102   2.422328
    13  H    0.975604   2.170326   4.657986   4.063109   2.574814
    14  H    3.303519   0.980061   3.850253   2.355443   3.244575
    15  H    5.063746   4.384006   0.975560   3.795067   3.843343
    16  H    3.830186   2.954727   4.201305   0.987896   2.431755
    17  H    6.105530   6.276871   3.865922   4.426211   4.058771
    18  H    1.985466   3.366684   2.953386   4.336074   2.057460
    19  H    2.789769   1.995112   2.450003   4.094161   3.372338
    20  H    4.524754   2.583513   2.055910   2.614910   3.819692
    21  H    5.177246   4.191026   2.697700   2.012058   3.362437
    22  H    4.254745   4.540069   4.023525   2.570827   1.995258
    23  H    4.498241   5.568432   3.890412   4.563645   2.735905
    24  H    3.893942   4.563128   2.313867   4.262465   2.636062
                    6          7          8          9         10
     6  O    0.000000
     7  C    4.212441   0.000000
     8  C    4.448484   1.575977   0.000000
     9  C    3.478471   2.568392   1.522123   0.000000
    10  C    2.885933   2.941816   2.559368   1.541362   0.000000
    11  C    2.448793   2.444539   2.949076   2.523467   1.547274
    12  C    1.418284   3.005677   3.630611   3.114118   2.594588
    13  H    5.984198   1.898960   2.452672   3.794129   4.127655
    14  H    5.593726   2.960806   1.994979   2.501879   2.884436
    15  H    2.270105   3.716311   3.179464   1.976365   2.449245
    16  H    4.585341   3.223326   3.100062   2.938958   2.007856
    17  H    0.971863   4.857997   5.189045   4.204997   3.311104
    18  H    3.949431   1.091555   2.215911   2.977507   3.463349
    19  H    4.959562   2.148429   1.093331   2.155381   3.480504
    20  H    4.274849   3.497265   2.143584   1.096534   2.149270
    21  H    2.565117   3.942306   3.496616   2.179015   1.089344
    22  H    2.858285   3.319174   3.900145   3.450891   2.147316
    23  H    2.080332   3.484180   4.438405   4.130108   3.503106
    24  H    2.002582   2.653125   3.219835   2.907945   2.959461
                   11         12         13         14         15
    11  C    0.000000
    12  C    1.546957   0.000000
    13  H    3.850585   4.773741   0.000000
    14  H    3.673938   4.894103   2.689930   0.000000
    15  H    2.990481   2.604766   5.390183   4.473954   0.000000
    16  H    2.414381   3.945326   3.459919   2.274793   4.410517
    17  H    2.768967   1.967703   6.533271   6.125714   3.144615
    18  H    2.773035   2.727484   2.780544   3.942258   3.558985
    19  H    3.837654   4.197580   2.936776   2.793010   3.410217
    20  H    3.461541   4.126897   4.387020   2.451453   2.514931
    21  H    2.188443   2.832809   5.215723   3.787237   2.307086
    22  H    1.092210   2.187346   4.429975   4.236386   3.869576
    23  H    2.154573   1.092064   5.127773   5.657936   3.664806
    24  H    2.191200   1.089698   4.543655   4.838994   2.315836
                   16         17         18         19         20
    16  H    0.000000
    17  H    4.788244   0.000000
    18  H    4.149788   4.675456   0.000000
    19  H    4.188469   5.802405   2.382845   0.000000
    20  H    3.286546   4.952360   3.983451   2.590454   0.000000
    21  H    2.795261   2.858432   4.308834   4.295624   2.513858
    22  H    2.416911   2.799564   3.713627   4.857361   4.259421
    23  H    4.511441   2.252911   3.114622   4.998505   5.166624
    24  H    4.399743   2.807728   2.070316   3.528704   3.949281
                   21         22         23         24
    21  H    0.000000
    22  H    2.536710   0.000000
    23  H    3.757795   2.412456   0.000000
    24  H    3.323228   3.084405   1.783190   0.000000
 Stoichiometry    C6H12O6
 Framework group  C1[X(C6H12O6)]
 Deg. of freedom    66
 Full point group                 C1      NOp   1
 Largest Abelian subgroup         C1      NOp   1
 Largest concise Abelian subgroup C1      NOp   1
                         Standard orientation:                         
 ---------------------------------------------------------------------
 Center     Atomic      Atomic             Coordinates (Angstroms)
 Number     Number       Type             X           Y           Z
 ---------------------------------------------------------------------
      1          8           0       -2.272174    1.757667   -0.077909
      2          8           0       -2.440976   -0.930615   -0.166507
      3          8           0        0.773554   -0.828871   -1.796970
      4          8           0       -0.092754   -1.573756    1.712497
      5          8           0       -0.305487    1.168384    0.885807
      6          8           0        3.053072    0.321775   -0.297285
      7          6           0       -1.082840    1.120595   -0.325242
      8          6           0       -1.312344   -0.359800   -0.814593
      9          6           0       -0.048702   -1.200480   -0.699153
     10          6           0        0.681002   -1.023684    0.646979
     11          6           0        0.927981    0.481105    0.909028
     12          6           0        1.913232    1.138833   -0.085834
     13          1           0       -2.834995    1.125185    0.406862
     14          1           0       -2.167823   -1.473339    0.602490
     15          1           0        1.710107   -0.988384   -1.575294
     16          1           0       -0.625717   -0.875290    2.164198
     17          1           0        3.658960    0.411306    0.457302
     18          1           0       -0.560824    1.707390   -1.083308
     19          1           0       -1.613949   -0.282949   -1.862687
     20          1           0       -0.317706   -2.258607   -0.801092
     21          1           0        1.617579   -1.579975    0.652733
     22          1           0        1.287557    0.583621    1.935244
     23          1           0        2.194943    2.117260    0.309038
     24          1           0        1.460017    1.257697   -1.069658
 ---------------------------------------------------------------------
 Rotational constants (GHZ):      1.3074789      0.7912059      0.7204831
 Standard basis: 6-311+G(2d,p) (5D, 7F)
 There are   420 symmetry adapted cartesian basis functions of A   symmetry.
 There are   396 symmetry adapted basis functions of A   symmetry.
   396 basis functions,   600 primitive gaussians,   420 cartesian basis functions
    48 alpha electrons       48 beta electrons
       nuclear repulsion energy       856.3430750663 Hartrees.
 NAtoms=   24 NActive=   24 NUniq=   24 SFac= 1.00D+00 NAtFMM=   60 NAOKFM=F Big=F
 Integral buffers will be    131072 words long.
 Regular integral format.
 Two-electron integral symmetry is turned on.
 ------------------------------------------------------------------------------
 Polarizable Continuum Model (PCM)
 =================================
 Model                : PCM (using non-symmetric T matrix).
 Atomic radii         : UFF (Universal Force Field).
 Polarization charges : Total charges.
 Charge compensation  : None.
 Solution method      : On-the-fly selection.
 Cavity type          : Scaled VdW (van der Waals Surface) (Alpha=1.100).
 Cavity algorithm     : GePol (No added spheres)
                        Default sphere list used, NSphG=   24.
                        Lebedev-Laikov grids with approx.  5.0 points / Ang**2.
                        Smoothing algorithm: Karplus/York (Gamma=1.0000).
                        Polarization charges: spherical gaussians, with
                                              point-specific exponents (IZeta= 3).
                        Self-potential: point-specific (ISelfS= 7).
                        Self-field    : sphere-specific E.n sum rule (ISelfD= 2).
 1st derivatives      : Analytical E(r).r(x)/FMM algorithm (CHGder, D1EAlg=3).
                        Cavity 1st derivative terms included.
 Solvent              : Water, Eps=  78.355300 Eps(inf)=   1.777849
 ------------------------------------------------------------------------------
 One-electron integrals computed using PRISM.
 NBasis=   396 RedAO= T EigKep=  6.97D-06  NBF=   396
 NBsUse=   396 1.00D-06 EigRej= -1.00D+00 NBFU=   396
 Initial guess from the checkpoint file:  "glicoseUV.chk"
 B after Tr=     0.000000    0.000000    0.000000
         Rot=    0.997484   -0.070659   -0.003853    0.004319 Ang=  -8.13 deg.
 ExpMin= 4.38D-02 ExpMax= 8.59D+03 ExpMxC= 1.30D+03 IAcc=2 IRadAn=         4 AccDes= 0.00D+00
 Harris functional with IExCor= 1009 and IRadAn=       4 diagonalized for initial guess.
 HarFok:  IExCor= 1009 AccDes= 0.00D+00 IRadAn=         4 IDoV= 1 UseB2=F ITyADJ=14
 ICtDFT=  3500011 ScaDFX=  1.000000  1.000000  1.000000  1.000000
 FoFCou: FMM=F IPFlag=           0 FMFlag=      100000 FMFlg1=           0
         NFxFlg=           0 DoJE=T BraDBF=F KetDBF=T FulRan=T
         wScrn=  0.000000 ICntrl=     500 IOpCl=  0 I1Cent=   200000004 NGrid=           0
         NMat0=    1 NMatS0=      1 NMatT0=    0 NMatD0=    1 NMtDS0=    0 NMtDT0=    0
 Petite list used in FoFCou.
 Keep R1 ints in memory in canonical form, NReq=3127367587.
 Requested convergence on RMS density matrix=1.00D-08 within 128 cycles.
 Requested convergence on MAX density matrix=1.00D-06.
 Requested convergence on             energy=1.00D-06.
 No special actions if energy rises.
 Inv3:  Mode=1 IEnd=     7844067.
 Iteration    1 A*A^-1 deviation from unit magnitude is 5.11D-15 for   1615.
 Iteration    1 A*A^-1 deviation from orthogonality  is 3.71D-15 for   1612    476.
 Iteration    1 A^-1*A deviation from unit magnitude is 5.11D-15 for   1615.
 Iteration    1 A^-1*A deviation from orthogonality  is 2.11D-12 for   1278   1240.
 Error on total polarization charges =  0.01170
 SCF Done:  E(RM062X) =  -687.158662895     A.U. after   11 cycles
            NFock= 11  Conv=0.57D-08     -V/T= 2.0037
 DoSCS=F DFT=T ScalE2(SS,OS)=  1.000000  1.000000
 ExpMin= 4.38D-02 ExpMax= 8.59D+03 ExpMxC= 1.30D+03 IAcc=3 IRadAn=         5 AccDes= 0.00D+00
 HarFok:  IExCor=  205 AccDes= 0.00D+00 IRadAn=         5 IDoV=-2 UseB2=F ITyADJ=14
 ICtDFT= 12500011 ScaDFX=  1.000000  1.000000  1.000000  1.000000
 Range of M.O.s used for correlation:    13   396
 NBasis=   396 NAE=    48 NBE=    48 NFC=    12 NFV=     0
 NROrb=    384 NOA=    36 NOB=    36 NVA=   348 NVB=   348

 **** Warning!!: The largest alpha MO coefficient is  0.72283410D+02

 Would need an additional          3005700000 words for in-memory AO integral storage.
 NEqPCM:  Using equilibrium solvation (IEInf=0, Eps=  78.3553, EpsInf=   1.7778)
 Orbital symmetries:
       Occupied  (A) (A) (A) (A) (A) (A) (A) (A) (A) (A) (A) (A)
                 (A) (A) (A) (A) (A) (A) (A) (A) (A) (A) (A) (A)
                 (A) (A) (A) (A) (A) (A) (A) (A) (A) (A) (A) (A)
                 (A) (A) (A) (A) (A) (A) (A) (A) (A) (A) (A) (A)
       Virtual   (A) (A) (A) (A) (A) (A) (A) (A) (A) (A) (A) (A)
                 (A) (A) (A) (A) (A) (A) (A) (A) (A) (A) (A) (A)
                 (A) (A) (A) (A) (A) (A) (A) (A) (A) (A) (A) (A)
                 (A) (A) (A) (A) (A) (A) (A) (A) (A) (A) (A) (A)
                 (A) (A) (A) (A) (A) (A) (A) (A) (A) (A) (A) (A)
                 (A) (A) (A) (A) (A) (A) (A) (A) (A) (A) (A) (A)
                 (A) (A) (A) (A) (A) (A) (A) (A) (A) (A) (A) (A)
                 (A) (A) (A) (A) (A) (A) (A) (A) (A) (A) (A) (A)
                 (A) (A) (A) (A) (A) (A) (A) (A) (A) (A) (A) (A)
                 (A) (A) (A) (A) (A) (A) (A) (A) (A) (A) (A) (A)
                 (A) (A) (A) (A) (A) (A) (A) (A) (A) (A) (A) (A)
                 (A) (A) (A) (A) (A) (A) (A) (A) (A) (A) (A) (A)
                 (A) (A) (A) (A) (A) (A) (A) (A) (A) (A) (A) (A)
                 (A) (A) (A) (A) (A) (A) (A) (A) (A) (A) (A) (A)
                 (A) (A) (A) (A) (A) (A) (A) (A) (A) (A) (A) (A)
                 (A) (A) (A) (A) (A) (A) (A) (A) (A) (A) (A) (A)
                 (A) (A) (A) (A) (A) (A) (A) (A) (A) (A) (A) (A)
                 (A) (A) (A) (A) (A) (A) (A) (A) (A) (A) (A) (A)
                 (A) (A) (A) (A) (A) (A) (A) (A) (A) (A) (A) (A)
                 (A) (A) (A) (A) (A) (A) (A) (A) (A) (A) (A) (A)
                 (A) (A) (A) (A) (A) (A) (A) (A) (A) (A) (A) (A)
                 (A) (A) (A) (A) (A) (A) (A) (A) (A) (A) (A) (A)
                 (A) (A) (A) (A) (A) (A) (A) (A) (A) (A) (A) (A)
                 (A) (A) (A) (A) (A) (A) (A) (A) (A) (A) (A) (A)
                 (A) (A) (A) (A) (A) (A) (A) (A) (A) (A) (A) (A)
                 (A) (A) (A) (A) (A) (A) (A) (A) (A) (A) (A) (A)
                 (A) (A) (A) (A) (A) (A) (A) (A) (A) (A) (A) (A)
                 (A) (A) (A) (A) (A) (A) (A) (A) (A) (A) (A) (A)
                 (A) (A) (A) (A) (A) (A) (A) (A) (A) (A) (A) (A)
 Generating guess from densities on rwf.
 Convergence on wavefunction:    0.000001000000000
 Iteration     1 Dimension   120 NMult     0 NNew    120
 CISAX will form   120 AO SS matrices at one time.
 New state     10 was old state     11
 New state     11 was old state     12
 New state     12 was old state     10
 New state     13 was old state     15
 New state     14 was old state     13
 New state     15 was old state     16
 New state     16 was old state     18
 New state     18 was old state     19
 New state     19 was old state     20
 New state     20 was old state     21
 New state     21 was old state     24
 New state     22 was old state     23
 New state     23 was old state     28
 New state     24 was old state     25
 New state     25 was old state     30
 New state     26 was old state     29
 New state     28 was old state     39
 New state     29 was old state     33
 New state     30 was old state     35
 New state     31 was old state     42
 New state     32 was old state     34
 New state     33 was old state     32
 New state     34 was old state     40
 New state     35 was old state     36
 New state     36 was old state     43
 New state     37 was old state     31
 New state     38 was old state     47
 New state     39 was old state     50
 New state     40 was old state     38
 New state     41 was old state     49
 New state     42 was old state     41
 New state     43 was old state     44
 New state     44 was old state     52
 New state     45 was old state     51
 New state     47 was old state     58
 New state     48 was old state     45
 New state     49 was old state     48
 New state     50 was old state     54
 New state     51 was old state     57
 New state     52 was old state     37
 New state     53 was old state     22
 New state     54 was old state     55
 New state     55 was old state     53
 New state     56 was old state     59
 New state     57 was old state     60
 New state     58 was old state     56
 New state     59 was old state     14
 New state     60 was old state     26
 Iteration     2 Dimension   240 NMult   120 NNew    120
 New state     11 was old state     12
 New state     12 was old state     11
 New state     15 was old state     16
 New state     16 was old state     15
 New state     17 was old state     21
 New state     19 was old state     17
 New state     21 was old state     19
 New state     22 was old state     23
 New state     23 was old state     22
 New state     24 was old state     25
 New state     25 was old state     24
 New state     26 was old state     27
 New state     27 was old state     28
 New state     28 was old state     44
 New state     29 was old state     31
 New state     31 was old state     26
 New state     32 was old state     39
 New state     33 was old state     32
 New state     34 was old state     33
 New state     35 was old state     29
 New state     36 was old state     34
 New state     38 was old state     48
 New state     39 was old state     38
 New state     40 was old state     36
 New state     41 was old state     43
 New state     42 was old state     50
 New state     43 was old state     41
 New state     44 was old state     51
 New state     45 was old state     52
 New state     46 was old state     54
 New state     47 was old state     42
 New state     48 was old state     55
 New state     50 was old state     56
 New state     51 was old state     46
 New state     52 was old state     59
 New state     53 was old state     45
 New state     54 was old state     35
 New state     55 was old state     47
 New state     56 was old state     57
 New state     57 was old state     58
 New state     58 was old state     53
 No map to state     59
 Iteration     3 Dimension   360 NMult   240 NNew    120
 New state     37 was old state     38
 New state     38 was old state     37
 New state     47 was old state     49
 New state     48 was old state     47
 New state     49 was old state     48
 New state     50 was old state     51
 New state     51 was old state     50
 New state     52 was old state     53
 New state     53 was old state     52
 New state     54 was old state     56
 New state     55 was old state     54
 New state     56 was old state     55
 New state     57 was old state     59
 New state     58 was old state     57
 New state     59 was old state     58
 Iteration     4 Dimension   480 NMult   360 NNew    120
 New state     57 was old state     58
 New state     58 was old state     57
 Iteration     5 Dimension   600 NMult   480 NNew    120
 Iteration     6 Dimension   720 NMult   600 NNew    120
 Iteration     7 Dimension   840 NMult   720 NNew    120
 Iteration     8 Dimension   958 NMult   840 NNew    118
 Davidson failed to converge within maximum sub-space dimensions.
  Restart with updated initial guess:
 Iteration     1 Dimension   218 NMult   958 NNew    218
 Iteration     2 Dimension   338 NMult  1176 NNew    120
 Iteration     3 Dimension   374 NMult  1296 NNew     36
 Iteration     4 Dimension   396 NMult  1332 NNew     22
 Iteration     5 Dimension   410 NMult  1354 NNew     14
 Iteration     6 Dimension   418 NMult  1368 NNew      8
