 *******************************************************************************
 ** Site#: 3934         For non-commercial use only    Version 20.323L 64BITS **
 *******************************************************************************
 ** Cite this program as: MOPAC2016, Version: 20.323L, James J. P. Stewart,   **
 ** Stewart Computational Chemistry, web: HTTP://OpenMOPAC.net. Days left: 350**
 *******************************************************************************
 **                                                                           **
 **                                MOPAC2016                                  **
 **                                                                           **
 *******************************************************************************

                              PM6 CALCULATION RESULTS

 *******************************************************************************
 *  CALCULATION DONE:                                Fri Dec  4 15:55:02 2020  *
 *  PM6        - The PM6 Hamiltonian to be used
 *  PRECISE    - CRITERIA TO BE INCREASED BY 100 TIMES
 *  FORCE      - FORCE CALCULATION SPECIFIED
 *  T=         - A TIME OF 172800.0 SECONDS REQUESTED
 *  DUMP=N     - RESTART FILE WRITTEN EVERY 7200.0 SECONDS REQUESTED
 *  AUX        - OUTPUT AUXILIARY INFORMATION
 *******************************************************************************
pm6 precise force aux


   ATOM                 CHEMICAL                   X               Y               Z
  NUMBER                 SYMBOL               (ANGSTROMS)     (ANGSTROMS)     (ANGSTROMS)
 
     1       O(HETATM    1  O1  GLC A   1)   -0.22334902  *  -0.25990008  *  -0.05944626  *
     2       O(HETATM    2  O2  GLC A   1)    2.36272972  *  -0.26089398  *  -0.05622062  *
     3       O(HETATM    3  O3  GLC A   1)    2.33094539  *   3.34168132  *  -0.05770598  *
     4       O(HETATM    4  O4  GLC A   1)    2.86845408  *   0.84828567  *   2.59399734  *
     5       O(HETATM    5  O5  GLC A   1)    0.17099613  *   1.06132555  *   1.68936836  *
     6       O(HETATM    6  O6  GLC A   1)    1.04799274  *   4.55257684  *   2.45271675  *
     7       C(HETATM    7  C1  GLC A   1)    0.32691990  *   0.98579367  *   0.23496984  *
     8       C(HETATM    8  C2  GLC A   1)    1.81377489  *   1.05085491  *  -0.20936291  *
     9       C(HETATM    9  C3  GLC A   1)    2.65171392  *   2.09091072  *   0.55782385  *
    10       C(HETATM   10  C4  GLC A   1)    2.33638152  *   2.07512082  *   2.07286566  *
    11       C(HETATM   11  C5  GLC A   1)    0.82230686  *   2.14124510  *   2.35884323  *
    12       C(HETATM   12  C6  GLC A   1)    0.20532300  *   3.49839888  *   1.97293106  *
    13       H(HETATM   13 1H1  GLC A   1)    0.42847181  *  -0.99399584  *   0.14111857  *
    14       H(HETATM   14 1H2  GLC A   1)    2.81075540  *  -0.35361753  *   0.82644631  *
    15       H(HETATM   15 1H3  GLC A   1)    2.41744918  *   4.09037388  *   0.58388906  *
    16       H(HETATM   16 1H4  GLC A   1)    2.14955493  *   0.16552359  *   2.65248781  *
    17       H(HETATM   17  H6  GLC A   1)    0.90230029  *   4.70787057  *   3.40843013  *
    18       H(HETATM   18 2H1  GLC A   1)   -0.33701691  *   1.73997460  *  -0.22860624  *
    19       H(HETATM   19 2H2  GLC A   1)    1.86756820  *   1.23546204  *  -1.31194210  *
    20       H(HETATM   20 2H3  GLC A   1)    3.74145756  *   1.90521886  *   0.39235343  *
    21       H(HETATM   21 2H4  GLC A   1)    2.89607476  *   2.87489056  *   2.61200242  *
    22       H(HETATM   22  H5  GLC A   1)    0.61675495  *   1.89507514  *   3.43014795  *
    23       H(HETATM   23 1H6  GLC A   1)   -0.82189496  *   3.60474495  *   2.35870595  *
    24       H(HETATM   24 2H6  GLC A   1)    0.19999482  *   3.65898019  *   0.87329894  *
 

 General Reference for PM6:
 "Optimization of Parameters for Semiempirical Methods V: Modification of NDDO Approximations
 and Application to 70 Elements", J. J. P. Stewart, J. Mol. Mod., 13, 1173-1213 (2007)
 URL: https://link.springer.com/article/10.1007/s00894-007-0233-4

           Empirical Formula: C6 H12 O6  =    24 atoms



      MOLECULAR POINT GROUP   :   C1  


      RHF CALCULATION, NO. OF DOUBLY OCCUPIED LEVELS = 36



          HEAT OF FORMATION =    -274.895331 KCALS/MOLE


          CARTESIAN COORDINATE DERIVATIVES

   NUMBER  ATOM         X            Y            Z

     1       O      0.062513     0.069014     0.026723
     2       O     -0.120428     0.325705     0.055112
     3       O      0.101025    -0.069321    -0.085331
     4       O      0.008882    -0.130987     0.038238
     5       O     -0.168487    -0.069658    -0.085602
     6       O      0.018196    -0.087141    -0.024581
     7       C      0.037536    -0.112452    -0.019503
     8       C     -0.000199    -0.260686    -0.053957
     9       C      0.076001    -0.049925    -0.219816
    10       C     -0.155504    -0.295851    -0.192346
    11       C     -0.039003     0.300065     0.128715
    12       C      0.095103     0.032263     0.142488
    13       H      0.223801    -0.027847     0.074260
    14       H      0.012426     0.007734    -0.085525
    15       H     -0.032342     0.146912     0.120477
    16       H     -0.058166     0.021780    -0.003798
    17       H      0.033736     0.052785    -0.070925
    18       H     -0.107876    -0.048674    -0.056045
    19       H      0.005461     0.063325     0.114692
    20       H     -0.050885     0.018676     0.031410
    21       H      0.103947     0.126057     0.191145
    22       H     -0.002646    -0.008206    -0.016909
    23       H      0.064358     0.025564    -0.012137
    24       H     -0.107448    -0.029135     0.003217
 
 DIPOLE           X         Y         Z       TOTAL
 POINT-CHG.    -0.140     2.400     1.678     2.932
 HYBRID         0.186    -0.578     1.083     1.242
 SUM            0.046     1.822     2.761     3.308


          GRADIENT NORM =   0.94090


          TIME FOR SCF CALCULATION =    0.02

          TIME FOR DERIVATIVES     =    0.01

          MOLECULAR WEIGHT =  180.16



          ROTATIONAL CONSTANTS IN CM(-1)

          A =    0.04412458   B =    0.02629319   C =    0.02401132



           PRINCIPAL MOMENTS OF INERTIA IN UNITS OF 10**(-40)*GRAM-CM**2

          A =      634.4031   B =     1064.6395   C =     1165.8157


          ORIENTATION OF MOLECULE IN FORCE CALCULATION

    NO.       ATOM         X         Y         Z

     1          O      -1.6222   -2.0112   -1.1950
     2          O       0.9638   -2.0112   -1.1950
     3          O       0.9307    1.5913   -1.1950
     4          O       1.4724   -0.9029    1.4550
     5          O      -1.2262   -0.6905    0.5539
     6          O      -0.3496    2.8007    1.3175
     7          C      -1.0721   -0.7654   -0.9008
     8          C       0.4142   -0.6996   -1.3469
     9          C       1.2527    0.3405   -0.5804
    10          C       0.9393    0.3239    0.9351
    11          C      -0.5745    0.3894    1.2230
    12          C      -1.1925    1.7464    0.8384
    13          H      -0.9699   -2.7451   -0.9955
    14          H       1.4130   -2.1041   -0.3129
    15          H       1.0177    2.3398   -0.5532
    16          H       0.7539   -1.5860    1.5142
    17          H      -0.4942    2.9556    2.2735
    18          H      -1.7369   -0.0113   -1.3632
    19          H       0.4665   -0.5145   -2.4495
    20          H       2.3423    0.1552   -0.7473
    21          H       1.4993    1.1237    1.4738
    22          H      -0.7786    0.1427    2.2944
    23          H      -2.2193    1.8522    1.2255
    24          H      -1.1992    1.9075   -0.2612


    FIRST DERIVATIVES WILL BE USED IN THE CALCULATION OF SECOND DERIVATIVES

          ESTIMATED TIME TO COMPLETE CALCULATION =        7.88 SECONDS

    FOR POINT-GROUP C1   THERE ARE   1 UNIQUE SYMMETRY FUNCTIONS.

 STEP:   1 TIME =     0.08 SECS, INTEGRAL =      0.08 TIME LEFT: 172799.89
 STEP:   2 TIME =     0.07 SECS, INTEGRAL =      0.15 TIME LEFT: 172799.82
 STEP:   3 TIME =     0.06 SECS, INTEGRAL =      0.21 TIME LEFT: 172799.76
 STEP:   4 TIME =     0.07 SECS, INTEGRAL =      0.28 TIME LEFT: 172799.70
 STEP:   5 TIME =     0.07 SECS, INTEGRAL =      0.34 TIME LEFT: 172799.63
 STEP:   6 TIME =     0.07 SECS, INTEGRAL =      0.41 TIME LEFT: 172799.56
 STEP:   7 TIME =     0.06 SECS, INTEGRAL =      0.47 TIME LEFT: 172799.50
 STEP:   8 TIME =     0.06 SECS, INTEGRAL =      0.54 TIME LEFT: 172799.44
 STEP:   9 TIME =     0.07 SECS, INTEGRAL =      0.60 TIME LEFT: 172799.37
 STEP:  10 TIME =     0.07 SECS, INTEGRAL =      0.67 TIME LEFT: 172799.30
 STEP:  11 TIME =     0.06 SECS, INTEGRAL =      0.73 TIME LEFT: 172799.24
 STEP:  12 TIME =     0.07 SECS, INTEGRAL =      0.80 TIME LEFT: 172799.18
 STEP:  13 TIME =     0.07 SECS, INTEGRAL =      0.86 TIME LEFT: 172799.11
 STEP:  14 TIME =     0.05 SECS, INTEGRAL =      0.92 TIME LEFT: 172799.05
 STEP:  15 TIME =     0.05 SECS, INTEGRAL =      0.97 TIME LEFT: 172799.00
 STEP:  16 TIME =     0.06 SECS, INTEGRAL =      1.03 TIME LEFT: 172798.94
 STEP:  17 TIME =     0.05 SECS, INTEGRAL =      1.08 TIME LEFT: 172798.89
 STEP:  18 TIME =     0.04 SECS, INTEGRAL =      1.12 TIME LEFT: 172798.85
 STEP:  19 TIME =     0.05 SECS, INTEGRAL =      1.17 TIME LEFT: 172798.80
 STEP:  20 TIME =     0.05 SECS, INTEGRAL =      1.21 TIME LEFT: 172798.76
 STEP:  21 TIME =     0.05 SECS, INTEGRAL =      1.26 TIME LEFT: 172798.71
 STEP:  22 TIME =     0.05 SECS, INTEGRAL =      1.31 TIME LEFT: 172798.66
 STEP:  23 TIME =     0.05 SECS, INTEGRAL =      1.36 TIME LEFT: 172798.62
 STEP:  24 TIME =     0.04 SECS, INTEGRAL =      1.40 TIME LEFT: 172798.57
 STEP:  25 TIME =     0.05 SECS, INTEGRAL =      1.45 TIME LEFT: 172798.53
 STEP:  26 TIME =     0.05 SECS, INTEGRAL =      1.49 TIME LEFT: 172798.48
 STEP:  27 TIME =     0.05 SECS, INTEGRAL =      1.54 TIME LEFT: 172798.43
 STEP:  28 TIME =     0.05 SECS, INTEGRAL =      1.59 TIME LEFT: 172798.39
 STEP:  29 TIME =     0.04 SECS, INTEGRAL =      1.63 TIME LEFT: 172798.34
 STEP:  30 TIME =     0.05 SECS, INTEGRAL =      1.68 TIME LEFT: 172798.30
 STEP:  31 TIME =     0.05 SECS, INTEGRAL =      1.72 TIME LEFT: 172798.25
 STEP:  32 TIME =     0.05 SECS, INTEGRAL =      1.77 TIME LEFT: 172798.20
 STEP:  33 TIME =     0.05 SECS, INTEGRAL =      1.82 TIME LEFT: 172798.16
 STEP:  34 TIME =     0.04 SECS, INTEGRAL =      1.86 TIME LEFT: 172798.11
 STEP:  35 TIME =     0.05 SECS, INTEGRAL =      1.91 TIME LEFT: 172798.07
 STEP:  36 TIME =     0.05 SECS, INTEGRAL =      1.95 TIME LEFT: 172798.02
 STEP:  37 TIME =     0.05 SECS, INTEGRAL =      2.00 TIME LEFT: 172797.97
 STEP:  38 TIME =     0.04 SECS, INTEGRAL =      2.04 TIME LEFT: 172797.93
 STEP:  39 TIME =     0.05 SECS, INTEGRAL =      2.09 TIME LEFT: 172797.88
 STEP:  40 TIME =     0.05 SECS, INTEGRAL =      2.14 TIME LEFT: 172797.84
 STEP:  41 TIME =     0.05 SECS, INTEGRAL =      2.18 TIME LEFT: 172797.79
 STEP:  42 TIME =     0.05 SECS, INTEGRAL =      2.23 TIME LEFT: 172797.74
 STEP:  43 TIME =     0.05 SECS, INTEGRAL =      2.28 TIME LEFT: 172797.70
 STEP:  44 TIME =     0.05 SECS, INTEGRAL =      2.32 TIME LEFT: 172797.65
 STEP:  45 TIME =     0.05 SECS, INTEGRAL =      2.37 TIME LEFT: 172797.60
 STEP:  46 TIME =     0.05 SECS, INTEGRAL =      2.42 TIME LEFT: 172797.55
 STEP:  47 TIME =     0.04 SECS, INTEGRAL =      2.46 TIME LEFT: 172797.51
 STEP:  48 TIME =     0.05 SECS, INTEGRAL =      2.51 TIME LEFT: 172797.46
 STEP:  49 TIME =     0.05 SECS, INTEGRAL =      2.55 TIME LEFT: 172797.42
 STEP:  50 TIME =     0.05 SECS, INTEGRAL =      2.60 TIME LEFT: 172797.37
 STEP:  51 TIME =     0.05 SECS, INTEGRAL =      2.65 TIME LEFT: 172797.32
 STEP:  52 TIME =     0.05 SECS, INTEGRAL =      2.70 TIME LEFT: 172797.28
 STEP:  53 TIME =     0.04 SECS, INTEGRAL =      2.74 TIME LEFT: 172797.23
 STEP:  54 TIME =     0.05 SECS, INTEGRAL =      2.79 TIME LEFT: 172797.19
 STEP:  55 TIME =     0.05 SECS, INTEGRAL =      2.83 TIME LEFT: 172797.14
 STEP:  56 TIME =     0.04 SECS, INTEGRAL =      2.88 TIME LEFT: 172797.10
 STEP:  57 TIME =     0.05 SECS, INTEGRAL =      2.92 TIME LEFT: 172797.05
 STEP:  58 TIME =     0.04 SECS, INTEGRAL =      2.96 TIME LEFT: 172797.01
 STEP:  59 TIME =     0.05 SECS, INTEGRAL =      3.02 TIME LEFT: 172796.96
 STEP:  60 TIME =     0.04 SECS, INTEGRAL =      3.06 TIME LEFT: 172796.91
 STEP:  61 TIME =     0.05 SECS, INTEGRAL =      3.11 TIME LEFT: 172796.87
 STEP:  62 TIME =     0.05 SECS, INTEGRAL =      3.15 TIME LEFT: 172796.82
 STEP:  63 TIME =     0.04 SECS, INTEGRAL =      3.20 TIME LEFT: 172796.78
 STEP:  64 TIME =     0.05 SECS, INTEGRAL =      3.24 TIME LEFT: 172796.73
 STEP:  65 TIME =     0.05 SECS, INTEGRAL =      3.29 TIME LEFT: 172796.68
 STEP:  66 TIME =     0.05 SECS, INTEGRAL =      3.34 TIME LEFT: 172796.64
 STEP:  67 TIME =     0.04 SECS, INTEGRAL =      3.38 TIME LEFT: 172796.59
 STEP:  68 TIME =     0.05 SECS, INTEGRAL =      3.43 TIME LEFT: 172796.55
 STEP:  69 TIME =     0.05 SECS, INTEGRAL =      3.47 TIME LEFT: 172796.50
 STEP:  70 TIME =     0.05 SECS, INTEGRAL =      3.52 TIME LEFT: 172796.45
 STEP:  71 TIME =     0.05 SECS, INTEGRAL =      3.57 TIME LEFT: 172796.41
 STEP:  72 TIME =     0.04 SECS, INTEGRAL =      3.61 TIME LEFT: 172796.36

(To convert to Hartree/Bohr^2, multiply by (10^(-21) x N x a0^2)/(4.184 x 627.51) =  0.0642)


           FORCE MATRIX IN MILLIDYNES/ANGSTROM


                  O  1       O  2       O  3       O  4       O  5       O  6
 ------------------------------------------------------------------------------
     O    1   8.037265
     O    2   0.172965   7.477664
     O    3   0.031336   0.139038   7.522222
     O    4   0.046165   0.157897   0.140436   7.400818
     O    5   1.393337   0.088194   0.064281   0.099271   8.811751
     O    6   0.037340   0.018892   0.063039   0.032857   0.148822   7.524274
     C    7   4.383985   0.868460   0.063785   0.063368   3.119367   0.084025
     C    8   0.891757   3.901723   0.822314   0.085544   0.695504   0.018047
     C    9   0.091917   0.774228   3.989988   0.777293   0.080063   0.029542
     C   10   0.043903   0.088156   0.686881   3.839772   0.928256   0.032581
     C   11   0.217220   0.042709   0.048019   0.861875   3.744757   0.749482
     C   12   0.035269   0.009599   0.084227   0.099406   0.711450   4.027798
     H   13   3.125828   0.134320   0.014663   0.028223   0.070452   0.012600
     H   14   0.027313   3.177592   0.038498   0.130427   0.054827   0.007652
     H   15   0.016629   0.033047   3.199522   0.042986   0.035978   0.045247
     H   16   0.028777   0.045664   0.032846   3.252663   0.081761   0.011488
     H   17   0.013543   0.006858   0.013802   0.015884   0.039400   3.271166
     H   18   0.770485   0.062340   0.015688   0.006338   0.666087   0.006490
     H   19   0.034095   0.735908   0.017783   0.009199   0.070300   0.006122
     H   20   0.020322   0.025578   0.719524   0.024542   0.016290   0.006734
     H   21   0.009487   0.007315   0.025773   0.719143   0.075305   0.037466
     H   22   0.053795   0.008246   0.007827   0.025291   0.798824   0.027023
     H   23   0.008528   0.003768   0.010323   0.019590   0.026908   0.726550
     H   24   0.011898   0.009320   0.040408   0.014604   0.042126   0.750975


                  C  7       C  8       C  9       C 10       C 11       C 12
 ------------------------------------------------------------------------------
     C    7  12.164038
     C    8   2.696526  12.378969
     C    9   0.582238   3.098569  12.465676
     C   10   0.103436   0.641130   2.936168  12.414263
     C   11   0.918436   0.068376   0.648603   2.935610  12.358668
     C   12   0.116364   0.013385   0.040430   0.585211   3.078900  11.761696
     H   13   1.036394   0.157637   0.020686   0.020511   0.043144   0.008473
     H   14   0.101831   0.898248   0.119915   0.101467   0.029161   0.005784
     H   15   0.041284   0.096933   0.888416   0.108495   0.031424   0.051819
     H   16   0.054847   0.035360   0.077732   0.914676   0.144579   0.022006
     H   17   0.023365   0.006740   0.008176   0.015291   0.077879   0.905853
     H   18   3.208915   0.494564   0.019313   0.008294   0.067825   0.016134
     H   19   0.586569   3.199339   0.595675   0.048753   0.017172   0.004532
     H   20   0.052740   0.617779   3.182177   0.609656   0.053922   0.006139
     H   21   0.020324   0.050463   0.586243   3.228158   0.544966   0.032297
     H   22   0.080465   0.011758   0.049589   0.594716   3.211606   0.584183
     H   23   0.015027   0.003376   0.005628   0.043052   0.607259   3.343571
     H   24   0.050475   0.009675   0.035834   0.024527   0.594223   3.282751


                  H 13       H 14       H 15       H 16       H 17       H 18
 ------------------------------------------------------------------------------
     H   13   3.710848
     H   14   0.045360   3.634815
     H   15   0.006722   0.010919   3.652195
     H   16   0.021345   0.062034   0.009168   3.719104
     H   17   0.004134   0.002943   0.016783   0.004925   3.748531
     H   18   0.120105   0.014139   0.005198   0.006012   0.002268   4.170097
     H   19   0.013008   0.108081   0.007303   0.004936   0.002098   0.018297
     H   20   0.005651   0.022656   0.067336   0.007252   0.002492   0.003517
     H   21   0.002810   0.007347   0.023813   0.104847   0.016261   0.001779
     H   22   0.010178   0.004582   0.004197   0.025757   0.013539   0.010168
     H   23   0.002137   0.001832   0.007547   0.004948   0.060404   0.002946
     H   24   0.003632   0.004031   0.035396   0.004847   0.118679   0.010978


                  H 19       H 20       H 21       H 22       H 23       H 24
 ------------------------------------------------------------------------------
     H   19   4.161273
     H   20   0.016405   4.132324
     H   21   0.008579   0.017170   4.174572
     H   22   0.002022   0.009180   0.015084   4.181030
     H   23   0.001158   0.001244   0.004391   0.019698   4.166092
     H   24   0.003241   0.002826   0.002935   0.046278   0.404260   4.140030


          HEAT OF FORMATION =    -274.895331 KCALS/MOLE

          ZERO POINT ENERGY     107.684 KCAL/MOL


           NORMAL COORDINATE ANALYSIS (Total motion = 1 Angstrom)


   Root No.       1         2         3         4         5         6         7         8

                 1 A       2 A       3 A       4 A       5 A       6 A       7 A       8 A   

                  41.0      71.9      81.6     121.2     157.7     188.0     219.1     253.2
  
           1   -0.0128   -0.0330   -0.0075    0.0282    0.0133    0.0043    0.0225   -0.0623
           2    0.0076    0.0385   -0.0060   -0.0463   -0.0120   -0.0130   -0.0108    0.0145
           3   -0.0041   -0.0431    0.0199    0.0121    0.0127   -0.0090    0.0104    0.0241
           4   -0.0060   -0.0126   -0.0238   -0.0002   -0.0129   -0.0274   -0.0400    0.0925
           5   -0.0193   -0.0149    0.0097    0.0025   -0.0024    0.0217   -0.0212    0.0212
           6    0.0142    0.0172   -0.0763   -0.0310    0.0379    0.0491   -0.0032   -0.0212
           7    0.0011    0.0035    0.0783    0.0049    0.0784    0.0243   -0.0235    0.0193
           8   -0.0197   -0.0116   -0.0013   -0.0048    0.0088    0.0319   -0.0003   -0.0057
           9   -0.0274   -0.0097    0.0063   -0.0066   -0.0350    0.0168    0.0558    0.0005
          10    0.0170    0.0459    0.0093    0.0107   -0.0067    0.0353    0.0607    0.0332
          11    0.0202    0.0488    0.0180    0.0440   -0.0091    0.0050   -0.0188   -0.0100
          12    0.0034    0.0374    0.0331    0.0372   -0.0397   -0.0253   -0.0020   -0.0359
          13    0.0036    0.0064    0.0145   -0.0441   -0.0154   -0.0153   -0.0358   -0.0497
          14    0.0080   -0.0161   -0.0171    0.0215    0.0148   -0.0170    0.0499    0.0219
          15   -0.0077   -0.0081    0.0243   -0.0277   -0.0084    0.0036   -0.0333   -0.0028
          16   -0.0394    0.0024   -0.0400    0.0539   -0.0239    0.0187   -0.0455   -0.0025
          17    0.0053   -0.0174    0.0076   -0.0201    0.0053   -0.0327    0.0477   -0.0047
          18    0.0837   -0.0218   -0.0138    0.0293    0.0119   -0.0049   -0.0221   -0.0062
          19    0.0018    0.0001   -0.0140   -0.0111   -0.0030   -0.0249   -0.0021    0.0022
          20    0.0019    0.0157   -0.0037   -0.0196    0.0003   -0.0023    0.0099   -0.0085
          21   -0.0066   -0.0103    0.0209   -0.0196   -0.0070    0.0020   -0.0262    0.0046
          22    0.0036    0.0038   -0.0232   -0.0097   -0.0017   -0.0237    0.0031    0.0072
          23   -0.0179   -0.0102    0.0190    0.0024    0.0005    0.0207   -0.0013   -0.0181
          24   -0.0043    0.0027   -0.0064   -0.0104   -0.0002    0.0082   -0.0074    0.0094
          25    0.0077    0.0013    0.0078   -0.0125    0.0066   -0.0092    0.0100   -0.0044
          26   -0.0137   -0.0069   -0.0172   -0.0060    0.0044    0.0158   -0.0169   -0.0049
          27   -0.0154    0.0015    0.0104    0.0011   -0.0139   -0.0007    0.0050    0.0087
          28    0.0079    0.0017    0.0034   -0.0231   -0.0033   -0.0049    0.0248   -0.0151
          29    0.0085    0.0125    0.0028    0.0101    0.0048   -0.0010   -0.0301   -0.0088
          30   -0.0148    0.0016    0.0088   -0.0017   -0.0177   -0.0006    0.0057    0.0046
          31    0.0085    0.0005    0.0028   -0.0246    0.0000   -0.0073    0.0247   -0.0135
          32    0.0091   -0.0214    0.0015   -0.0041   -0.0028   -0.0175   -0.0061   -0.0096
          33   -0.0141    0.0058    0.0064   -0.0113    0.0012   -0.0059   -0.0031    0.0080
          34    0.0141   -0.0190   -0.0082    0.0056   -0.0313    0.0182    0.0087   -0.0048
          35    0.0102   -0.0231   -0.0120    0.0197   -0.0043   -0.0154   -0.0050   -0.0044
          36   -0.0188    0.0281   -0.0239    0.0209    0.0496   -0.0430    0.0096    0.0013
          37   -0.0256   -0.0621    0.0102    0.0518    0.0240    0.0207    0.0326   -0.1078
          38    0.0001    0.0155   -0.0019   -0.0215   -0.0006   -0.0003    0.0057   -0.0106
          39    0.0082   -0.0355   -0.0210    0.0255    0.0283   -0.0063    0.0453    0.0497
          40   -0.0187   -0.0326   -0.0262    0.0061    0.0212   -0.0338   -0.0068    0.0200
          41   -0.0142   -0.0180   -0.0361   -0.0059    0.0298    0.0457   -0.0197    0.0052
          42    0.0210    0.0243   -0.0832   -0.0378    0.0256    0.0577   -0.0208    0.0171
          43    0.0851   -0.0529    0.0176    0.0064   -0.1265    0.0616   -0.0007    0.0239
          44   -0.0066   -0.0113   -0.0139   -0.0036   -0.0101    0.0214   -0.0164   -0.0035
          45   -0.0569   -0.0021    0.0284   -0.0081    0.0149    0.0244    0.0728   -0.0040
          46    0.0207    0.0805    0.0213    0.0386   -0.0138    0.0363    0.0661    0.0173
          47    0.0193    0.0145    0.0054    0.0201   -0.0030    0.0142   -0.0108    0.0328
          48    0.0245    0.0294    0.0159    0.0454   -0.0370    0.0696    0.0882    0.1736
          49   -0.1205    0.0477   -0.0591    0.0598    0.0463   -0.0644    0.0032   -0.0722
          50   -0.0282   -0.0080    0.0080   -0.0206   -0.0220    0.0108    0.0177    0.0701
          51    0.0771   -0.0164   -0.0164    0.0301    0.0273   -0.0249   -0.0099   -0.0296
          52    0.0122    0.0231   -0.0327   -0.0274   -0.0096   -0.0431   -0.0054    0.0368
          53    0.0086    0.0451   -0.0078   -0.0533   -0.0142   -0.0147   -0.0157    0.0101
          54   -0.0106    0.0043    0.0405   -0.0510   -0.0195    0.0099   -0.0613   -0.0230
          55    0.0079    0.0175   -0.0461   -0.0083    0.0057   -0.0167    0.0211   -0.0091
          56   -0.0334   -0.0204    0.0650    0.0188   -0.0238   -0.0015    0.0014   -0.0036
          57   -0.0068    0.0014   -0.0005   -0.0083   -0.0031    0.0065   -0.0058    0.0091
          58    0.0070    0.0020    0.0022   -0.0116    0.0056   -0.0125    0.0081   -0.0023
          59   -0.0179   -0.0063   -0.0644   -0.0151   -0.0262   -0.0068   -0.0004   -0.0160
          60   -0.0127    0.0047    0.0176    0.0132   -0.0026   -0.0051   -0.0174    0.0232
          61    0.0026   -0.0221   -0.0013   -0.0454    0.0030   -0.0224    0.0215   -0.0283
          62    0.0212    0.0454    0.0156    0.0401   -0.0054    0.0088   -0.0222   -0.0004
          63   -0.0269   -0.0196   -0.0039   -0.0179   -0.0098    0.0049    0.0005    0.0085
          64    0.0092    0.0090    0.0033   -0.0312    0.0227   -0.0163    0.0171   -0.0182
          65    0.0162   -0.0414    0.0212   -0.0239   -0.0290    0.0033   -0.0272   -0.0084
          66   -0.0124    0.0028    0.0108   -0.0164    0.0011   -0.0045   -0.0097    0.0061
          67   -0.0178   -0.0004   -0.0207    0.0168   -0.0127    0.0022    0.0061   -0.0066
          68   -0.0225   -0.0205   -0.0262    0.0485   -0.0219   -0.0005   -0.0418   -0.0015
          69   -0.0942    0.0766   -0.0519    0.0405    0.1070   -0.0927    0.0172   -0.0057
          70    0.0966   -0.0723    0.0175   -0.0066   -0.0977    0.0742   -0.0108    0.0002
          71    0.0469   -0.0314   -0.0213    0.0371    0.0048   -0.0191   -0.0186   -0.0180
          72   -0.0142    0.0277   -0.0252    0.0243    0.0531   -0.0447    0.0065   -0.0012


   Root No.       9        10        11        12        13        14        15        16

                 9 A      10 A      11 A      12 A      13 A      14 A      15 A      16 A   

                 277.7     286.7     307.8     340.4     345.4     355.9     397.4     406.4
  
           1    0.0340    0.0032   -0.0153   -0.0043   -0.0021    0.0097    0.0072   -0.0216
           2    0.0062   -0.0057   -0.0091   -0.0107    0.0123    0.0174    0.0015   -0.0173
           3   -0.0170   -0.0103    0.0188   -0.0071    0.0318    0.0414   -0.0254    0.0116
           4   -0.0168    0.0099    0.0036    0.0122   -0.0236   -0.0007   -0.0046   -0.0109
           5   -0.0051    0.0093   -0.0003    0.0184   -0.0236    0.0334    0.0096    0.0183
           6   -0.0115   -0.0004    0.0045    0.0128   -0.0080    0.0045    0.0081    0.0049
           7   -0.0070    0.0002    0.0026    0.0052   -0.0004   -0.0118    0.0000    0.0013
           8   -0.0227   -0.0031    0.0185   -0.0008    0.0049   -0.0151    0.0001   -0.0189
           9   -0.0227    0.0017    0.0262    0.0055    0.0173   -0.0392   -0.0071   -0.0232
          10    0.0026   -0.0012   -0.0177   -0.0068   -0.0019   -0.0120   -0.0130    0.0157
          11   -0.0066   -0.0037    0.0015    0.0015    0.0109   -0.0168   -0.0087   -0.0117
          12   -0.0216   -0.0077    0.0140    0.0109   -0.0296    0.0350    0.0211   -0.0089
          13   -0.0052    0.0093    0.0322   -0.0004    0.0181   -0.0095    0.0058    0.0480
          14    0.0018   -0.0122   -0.0025   -0.0052   -0.0027    0.0234   -0.0079   -0.0211
          15    0.0124    0.0072   -0.0159   -0.0053   -0.0090   -0.0153    0.0066   -0.0344
          16    0.0076   -0.0101    0.0094   -0.0079    0.0014   -0.0097   -0.0007    0.0022
          17   -0.0024    0.0207   -0.0107    0.0173   -0.0276   -0.0381    0.0060    0.0317
          18   -0.0019   -0.0013    0.0057   -0.0108   -0.0031   -0.0083    0.0007    0.0022
          19    0.0062   -0.0050   -0.0002   -0.0131    0.0199   -0.0007   -0.0072   -0.0080
          20    0.0106   -0.0052   -0.0049   -0.0048    0.0106    0.0338   -0.0010   -0.0069
          21    0.0107    0.0023   -0.0190   -0.0034   -0.0077   -0.0119    0.0029   -0.0398
          22    0.0043   -0.0073   -0.0021   -0.0140    0.0225    0.0007   -0.0118   -0.0028
          23    0.0048   -0.0006   -0.0059    0.0056   -0.0027    0.0275    0.0046    0.0168
          24    0.0078   -0.0026   -0.0231   -0.0087   -0.0036   -0.0088   -0.0097   -0.0050
          25    0.0045   -0.0032   -0.0005    0.0013    0.0102    0.0121   -0.0039   -0.0203
          26   -0.0038   -0.0055   -0.0053   -0.0079    0.0026    0.0079   -0.0046    0.0083
          27    0.0114   -0.0019   -0.0184   -0.0114    0.0082   -0.0016   -0.0133    0.0381
          28   -0.0081   -0.0035    0.0105    0.0008   -0.0142    0.0164    0.0070   -0.0115
          29    0.0064    0.0010    0.0013   -0.0036    0.0188   -0.0133   -0.0097    0.0027
          30    0.0091   -0.0023   -0.0163   -0.0097    0.0025    0.0037   -0.0084    0.0426
          31   -0.0060   -0.0032    0.0119    0.0058   -0.0169    0.0170    0.0098   -0.0134
          32    0.0021    0.0038    0.0082   -0.0072    0.0047   -0.0160   -0.0017   -0.0101
          33    0.0169   -0.0049   -0.0157    0.0029   -0.0034    0.0052   -0.0024    0.0090
          34   -0.0103    0.0028   -0.0123   -0.0042   -0.0267    0.0005    0.0058    0.0189
          35    0.0019    0.0093    0.0026   -0.0041   -0.0029   -0.0375   -0.0018    0.0104
          36    0.0185    0.0015    0.0108    0.0295   -0.0061   -0.0111    0.0057    0.0101
          37    0.0621    0.0318   -0.0034   -0.0114   -0.0291    0.0247   -0.0540   -0.0333
          38    0.0145   -0.0016   -0.0063   -0.0071    0.0077    0.0336   -0.0025   -0.0113
          39   -0.0643   -0.0811   -0.0090    0.0199    0.1019    0.0524    0.1563    0.0692
          40   -0.0679   -0.1402   -0.1198   -0.0063    0.0611   -0.0879    0.2302   -0.0045
          41   -0.0355   -0.0284   -0.0179    0.0299   -0.0090    0.0121    0.1040    0.0254
          42    0.0139    0.0767    0.0685    0.0233   -0.0503    0.0482   -0.1019    0.0023
          43    0.0622    0.0383   -0.0334    0.3531    0.1417    0.0030   -0.0088   -0.0467
          44    0.0022   -0.0003   -0.0086    0.0222    0.0128    0.0109   -0.0034    0.0086
          45   -0.0643   -0.0078    0.0637   -0.0722   -0.0120   -0.0734   -0.0020   -0.0515
          46   -0.0261   -0.0415   -0.0456    0.0136   -0.0154   -0.0246   -0.0583    0.0184
          47    0.0410    0.0606    0.0392   -0.0324    0.0347   -0.0025    0.0581   -0.0135
          48    0.1347    0.2036    0.1004   -0.1060    0.0575    0.0396    0.2165    0.0044
          49   -0.1283    0.1921   -0.1119    0.0054    0.0543    0.0211   -0.0058   -0.0088
          50    0.1499   -0.1717    0.1161    0.0376   -0.0736   -0.0718    0.0144    0.0436
          51   -0.0483    0.0619   -0.0343   -0.0124    0.0121    0.0017   -0.0015   -0.0009
          52    0.0012   -0.0138   -0.0076   -0.0208    0.0314   -0.0089   -0.0118   -0.0233
          53    0.0099   -0.0034   -0.0094   -0.0113    0.0145    0.0174   -0.0011   -0.0208
          54    0.0183    0.0186   -0.0129   -0.0030   -0.0160   -0.0235    0.0092   -0.0345
          55    0.0035   -0.0063    0.0106   -0.0182    0.0338    0.0097   -0.0328    0.0418
          56    0.0159   -0.0033   -0.0223   -0.0068    0.0050    0.0256    0.0015    0.0414
          57    0.0089   -0.0026   -0.0231   -0.0101   -0.0013   -0.0086   -0.0107    0.0019
          58    0.0063   -0.0046   -0.0037   -0.0023    0.0134    0.0117   -0.0052   -0.0162
          59   -0.0052   -0.0154   -0.0068   -0.0365    0.0065    0.0142   -0.0038   -0.0013
          60    0.0288   -0.0011   -0.0359   -0.0057    0.0315   -0.0054   -0.0229    0.0624
          61   -0.0113    0.0006    0.0192    0.0012   -0.0239    0.0208    0.0142   -0.0161
          62    0.0059    0.0033    0.0044   -0.0026    0.0198   -0.0183   -0.0029   -0.0077
          63    0.0126   -0.0112   -0.0289   -0.0128    0.0085    0.0055   -0.0249    0.0588
          64   -0.0040   -0.0078    0.0184    0.0177   -0.0209    0.0209    0.0159   -0.0662
          65    0.0017    0.0108   -0.0006   -0.0307    0.0052   -0.0232    0.0037   -0.0379
          66    0.0164   -0.0033   -0.0151    0.0002   -0.0040    0.0041    0.0005   -0.0084
          67   -0.0042    0.0042   -0.0010    0.0079   -0.0200   -0.0057    0.0074    0.0137
          68    0.0056    0.0116   -0.0083   -0.0120    0.0096   -0.0486   -0.0094    0.0224
          69    0.0305    0.0086    0.0415    0.0638    0.0063   -0.0231    0.0127   -0.0070
          70   -0.0226    0.0001   -0.0449   -0.0310   -0.0299    0.0085   -0.0029    0.0346
          71   -0.0141    0.0212    0.0102   -0.0122    0.0031   -0.0441   -0.0003    0.0004
          72    0.0160    0.0034    0.0127    0.0278   -0.0046   -0.0125    0.0059    0.0076


   Root No.      17        18        19        20        21        22        23        24

                17 A      18 A      19 A      20 A      21 A      22 A      23 A      24 A   

                 465.5     479.3     490.0     551.2     577.4     678.6     776.8     849.3
  
           1    0.0281   -0.0075   -0.0274    0.0056   -0.0077    0.0212   -0.0069    0.0069
           2    0.0065    0.0046   -0.0282   -0.0056    0.0021    0.0182   -0.0141    0.0098
           3   -0.0216    0.0180   -0.0248   -0.0151    0.0167    0.0180   -0.0071    0.0002
           4    0.0047   -0.0098   -0.0158    0.0137   -0.0099    0.0269    0.0065   -0.0133
           5   -0.0046   -0.0281   -0.0066   -0.0043    0.0306   -0.0286   -0.0033    0.0253
           6   -0.0138   -0.0049   -0.0126    0.0001    0.0057   -0.0114   -0.0033    0.0006
           7    0.0031    0.0054   -0.0032    0.0038   -0.0117    0.0022   -0.0047    0.0014
           8    0.0100    0.0437    0.0185   -0.0180   -0.0457    0.0146    0.0069   -0.0048
           9    0.0006   -0.0170   -0.0128    0.0200    0.0292   -0.0042   -0.0027    0.0018
          10   -0.0035   -0.0196   -0.0125   -0.0272   -0.0280   -0.0041    0.0045   -0.0071
          11    0.0050    0.0072   -0.0036    0.0269    0.0332   -0.0006   -0.0029    0.0106
          12   -0.0049    0.0117    0.0000   -0.0263   -0.0250   -0.0013    0.0045   -0.0041
          13   -0.0051   -0.0152   -0.0122    0.0142   -0.0251    0.0036    0.0292    0.0312
          14   -0.0099   -0.0122    0.0130    0.0377   -0.0385   -0.0278    0.0152    0.0288
          15    0.0103   -0.0032   -0.0049   -0.0094   -0.0019   -0.0210   -0.0133   -0.0296
          16    0.0004   -0.0038   -0.0019   -0.0046    0.0013    0.0003   -0.0005   -0.0028
          17    0.0092    0.0258   -0.0084   -0.0142    0.0240    0.0091   -0.0056   -0.0018
          18   -0.0005   -0.0048   -0.0006   -0.0063    0.0011    0.0014   -0.0041   -0.0004
          19    0.0043    0.0224   -0.0036   -0.0162   -0.0008   -0.0516   -0.0328    0.0431
          20    0.0067   -0.0043   -0.0368    0.0045    0.0041    0.0483    0.0110   -0.0188
          21    0.0081   -0.0036    0.0023   -0.0146    0.0010   -0.0084   -0.0069    0.0381
          22   -0.0006    0.0226    0.0104   -0.0222    0.0128   -0.0293   -0.0034   -0.0129
          23   -0.0085   -0.0099    0.0066   -0.0153    0.0265   -0.0239    0.0007    0.0025
          24   -0.0024   -0.0110    0.0463   -0.0050    0.0093    0.0629    0.0416    0.0569
          25   -0.0081   -0.0122    0.0269   -0.0305    0.0717   -0.0170    0.0555   -0.0320
          26    0.0006    0.0268    0.0327   -0.0204   -0.0186    0.0051    0.0013   -0.0081
          27   -0.0082   -0.0157    0.0183    0.0095    0.0007    0.0085   -0.0229    0.0017
          28   -0.0111   -0.0186    0.0361    0.0095   -0.0036    0.0131   -0.0149   -0.0412
          29   -0.0018   -0.0039    0.0273    0.0463    0.0219    0.0096   -0.0224   -0.0322
          30   -0.0074   -0.0080    0.0144    0.0136   -0.0321    0.0037   -0.0266   -0.0335
          31   -0.0061   -0.0056    0.0295    0.0247   -0.0033    0.0054   -0.0259    0.0089
          32   -0.0064   -0.0370    0.0046    0.0016   -0.0355   -0.0188    0.0086   -0.0024
          33    0.0156    0.0299   -0.0162    0.0457   -0.0247   -0.0445    0.0429   -0.0169
          34    0.0114    0.0431    0.0018    0.0225    0.0320    0.0123   -0.0210    0.0210
          35   -0.0018   -0.0233   -0.0103   -0.0334   -0.0134   -0.0035    0.0085   -0.0123
          36    0.0024    0.0162    0.0018    0.0055    0.0105   -0.0027    0.0165   -0.0041
          37   -0.1191    0.0186   -0.0763    0.0210   -0.0033    0.0932    0.0233   -0.0530
          38   -0.0084   -0.0021   -0.0494    0.0049    0.0056    0.0731    0.0106   -0.0396
          39    0.3557   -0.0820    0.0328   -0.0175    0.0141    0.0257   -0.0015   -0.0303
          40   -0.1990    0.0117   -0.0409    0.0271   -0.0004    0.0360    0.0176   -0.0019
          41   -0.0780   -0.0248   -0.0636    0.0174    0.0217   -0.0620   -0.0345   -0.0381
          42    0.0809   -0.0156   -0.0085   -0.0027   -0.0002   -0.0199   -0.0141   -0.0172
          43   -0.0333    0.0312    0.0277   -0.0140   -0.0787    0.0159   -0.0106    0.0045
          44   -0.0017    0.0343    0.0381   -0.0235   -0.0365    0.0105   -0.0027   -0.0118
          45    0.0196   -0.0066   -0.0415    0.0294    0.0261   -0.0008    0.0111    0.0115
          46    0.0146   -0.0237   -0.0491   -0.0528   -0.0342   -0.0176    0.0223    0.0417
          47   -0.0144    0.0159    0.0372    0.0515    0.0396    0.0145   -0.0169   -0.0315
          48   -0.0472    0.0568    0.0249   -0.0199   -0.0171    0.0063    0.0194    0.0220
          49    0.0028    0.0001    0.0014    0.0138   -0.0095   -0.0147    0.0295   -0.0165
          50    0.0075    0.0283   -0.0107   -0.0254    0.0329    0.0108    0.0144   -0.0110
          51    0.0006   -0.0042    0.0000   -0.0017   -0.0014   -0.0006   -0.0041    0.0003
          52    0.0052    0.0382    0.0010   -0.0298    0.0021   -0.0408   -0.0493    0.0681
          53   -0.0008    0.0092   -0.0463   -0.0087    0.0050    0.0491   -0.0158   -0.0155
          54   -0.0047   -0.0057   -0.0258   -0.0152    0.0004   -0.0088   -0.0189   -0.0175
          55   -0.0085    0.0282    0.0136   -0.0084    0.0010   -0.0293   -0.0277   -0.0571
          56   -0.0208   -0.0255    0.0415   -0.0151    0.0502   -0.0289   -0.0031    0.0327
          57   -0.0052   -0.0127    0.0485   -0.0047    0.0122    0.0565    0.0362    0.0493
          58   -0.0074   -0.0060    0.0234   -0.0333    0.0681   -0.0246    0.0505   -0.0289
          59   -0.0004    0.0473    0.0451   -0.0571   -0.0085   -0.0086    0.0340   -0.0288
          60   -0.0042    0.0015   -0.0043    0.0085   -0.0000   -0.0298   -0.0438    0.0130
          61   -0.0095   -0.0258    0.0337    0.0375   -0.0498   -0.0056   -0.0190   -0.0437
          62    0.0009    0.0070    0.0058    0.0434    0.0489    0.0066   -0.0150   -0.0056
          63   -0.0110   -0.0133    0.0436   -0.0162   -0.0201    0.0233   -0.0296   -0.0533
          64   -0.0021   -0.0052    0.0355    0.0234    0.0319   -0.0007   -0.0223   -0.0120
          65   -0.0049   -0.0592   -0.0068   -0.0391   -0.0467   -0.0295   -0.0308   -0.0318
          66    0.0149    0.0221   -0.0150    0.0337   -0.0190   -0.0445    0.0286   -0.0227
          67    0.0038    0.0245    0.0082    0.0012    0.0296    0.0257   -0.0511    0.0299
          68    0.0087   -0.0101   -0.0339   -0.0287   -0.0159   -0.0305    0.0803   -0.0548
          69   -0.0212   -0.0371    0.0269   -0.0545    0.0065    0.0463   -0.1006    0.0430
          70    0.0342    0.0917   -0.0252    0.0728    0.0339   -0.0335    0.0993   -0.0358
          71   -0.0136   -0.0561   -0.0018   -0.0759   -0.0069    0.0358   -0.0540    0.0066
          72   -0.0010    0.0072    0.0037   -0.0053    0.0099    0.0053   -0.0016    0.0007


   Root No.      25        26        27        28        29        30        31        32

                25 A      26 A      27 A      28 A      29 A      30 A      31 A      32 A   

                 883.3     927.3     965.2    1042.2    1045.3    1072.6    1079.4    1094.6
  
           1    0.0072    0.0007   -0.0004   -0.0112    0.0076    0.0026    0.0019   -0.0103
           2    0.0104   -0.0015   -0.0011   -0.0205    0.0159    0.0090    0.0010   -0.0181
           3    0.0067   -0.0041    0.0018   -0.0054    0.0032    0.0032    0.0013   -0.0052
           4   -0.0072    0.0042   -0.0041   -0.0030    0.0078    0.0116   -0.0015    0.0073
           5    0.0124   -0.0115    0.0119    0.0057   -0.0209   -0.0282    0.0002   -0.0262
           6    0.0002    0.0003   -0.0010   -0.0001    0.0014    0.0044   -0.0025    0.0012
           7    0.0002   -0.0024   -0.0016    0.0051    0.0010   -0.0005    0.0065   -0.0014
           8    0.0001    0.0044    0.0030   -0.0093   -0.0035    0.0000   -0.0156    0.0025
           9   -0.0010   -0.0015   -0.0030    0.0072    0.0046   -0.0031    0.0111    0.0015
          10    0.0050   -0.0017    0.0011   -0.0014    0.0054   -0.0160   -0.0125    0.0041
          11   -0.0102    0.0007   -0.0005    0.0016   -0.0127    0.0323    0.0226   -0.0082
          12    0.0032   -0.0023   -0.0001   -0.0002    0.0059   -0.0135   -0.0071    0.0038
          13   -0.0108    0.0109   -0.0056   -0.0070    0.0043   -0.0082   -0.0010   -0.0008
          14   -0.0156    0.0170   -0.0096   -0.0147    0.0092   -0.0112   -0.0036   -0.0032
          15   -0.0253   -0.0215    0.0013   -0.0271   -0.0020   -0.0129    0.0047   -0.0057
          16    0.0008   -0.0018    0.0074    0.0080    0.0109   -0.0053    0.0084   -0.0032
          17    0.0005    0.0013    0.0127    0.0086    0.0155   -0.0068    0.0096   -0.0050
          18   -0.0025    0.0011    0.0084    0.0040    0.0056   -0.0019    0.0039   -0.0017
          19    0.0334   -0.0052    0.0112   -0.0157    0.0031    0.0025    0.0111    0.0113
          20   -0.0082    0.0033   -0.0010    0.0226   -0.0113   -0.0010   -0.0030    0.0060
          21    0.0207    0.0481   -0.0262    0.0421    0.0024    0.0105   -0.0173    0.0027
          22   -0.0168   -0.0147   -0.0032    0.0250   -0.0124   -0.0032   -0.0225   -0.0235
          23   -0.0055   -0.0078   -0.0014   -0.0018    0.0119    0.0323   -0.0109    0.0128
          24    0.0097   -0.0297    0.0215   -0.0095   -0.0056   -0.0020   -0.0012   -0.0052
          25   -0.0104    0.0393    0.0056   -0.0162   -0.0024   -0.0025    0.0049    0.0080
          26   -0.0094    0.0066   -0.0111    0.0107    0.0088   -0.0040    0.0319    0.0032
          27   -0.0142   -0.0178   -0.0207    0.0087    0.0151    0.0037    0.0012    0.0110
          28    0.0390   -0.0056    0.0136    0.0042    0.0029    0.0154   -0.0007   -0.0070
          29    0.0234    0.0090    0.0043   -0.0020    0.0096   -0.0327   -0.0225    0.0061
          30    0.0155    0.0372    0.0071   -0.0148   -0.0224    0.0092    0.0084   -0.0127
          31   -0.0154   -0.0117   -0.0160    0.0188   -0.0047    0.0018    0.0100    0.0016
          32   -0.0087   -0.0084   -0.0036    0.0064   -0.0179    0.0055    0.0047    0.0060
          33   -0.0038   -0.0023    0.0447    0.0157   -0.0020    0.0095   -0.0040    0.0131
          34   -0.0246    0.0172    0.0053   -0.0150   -0.0161    0.0028   -0.0133    0.0064
          35    0.0130   -0.0071   -0.0011    0.0062   -0.0033    0.0089   -0.0086    0.0062
          36    0.0160   -0.0104   -0.0347   -0.0135   -0.0127    0.0016   -0.0002   -0.0024
          37   -0.0254   -0.0137    0.0038    0.0496   -0.0494   -0.0411    0.0095    0.0729
          38   -0.0179   -0.0090   -0.0009    0.0333   -0.0294   -0.0217    0.0030    0.0415
          39   -0.0157   -0.0043   -0.0045    0.0199   -0.0158   -0.0109   -0.0023    0.0345
          40   -0.0032   -0.0109    0.0064   -0.0003   -0.0054   -0.0060   -0.0047   -0.0217
          41    0.0043    0.0418   -0.0222   -0.0236    0.0377    0.0313    0.0146    0.0977
          42   -0.0024    0.0168   -0.0118   -0.0096    0.0216    0.0206    0.0002    0.0477
          43    0.0032   -0.0098    0.0127   -0.0074   -0.0098    0.0048   -0.0096   -0.0141
          44   -0.0147    0.0023   -0.0214    0.0156    0.0267   -0.0019    0.0373    0.0264
          45    0.0181   -0.0007    0.0273   -0.0252   -0.0351   -0.0021   -0.0597   -0.0317
          46   -0.0373    0.0068   -0.0190    0.0066   -0.0254    0.0575    0.0655   -0.0123
          47    0.0284   -0.0043    0.0166   -0.0030    0.0129   -0.0290   -0.0400    0.0028
          48   -0.0139    0.0032   -0.0083    0.0095   -0.0094    0.0313    0.0371   -0.0092
          49    0.0347   -0.0296   -0.0823   -0.0410   -0.0549    0.0130   -0.0212    0.0122
          50    0.0325   -0.0255   -0.0783   -0.0444   -0.0563    0.0180   -0.0247    0.0093
          51   -0.0053    0.0045    0.0186    0.0121    0.0159   -0.0062    0.0086   -0.0031
          52    0.0685   -0.0342    0.0393    0.0445   -0.0915   -0.0887    0.0605    0.1484
          53    0.0094   -0.0139    0.0065    0.0429   -0.0609   -0.0635    0.0251    0.1110
          54   -0.0180    0.0477   -0.0502   -0.0020    0.0403    0.0245   -0.0418   -0.0152
          55   -0.0610   -0.1271    0.0081   -0.0091    0.0086    0.0425   -0.0651   -0.0534
          56   -0.0103   -0.0629   -0.0024   -0.0423    0.0699    0.1160   -0.0639    0.1561
          57    0.0016   -0.0355    0.0132   -0.0129    0.0105    0.0201   -0.0132    0.0228
          58   -0.0265    0.0328   -0.0069    0.0144   -0.0062   -0.0080   -0.0093   -0.0076
          59   -0.0476    0.0218   -0.0295    0.0636   -0.0119   -0.0057    0.0130   -0.0395
          60   -0.0838   -0.0038   -0.0774    0.1094   -0.0042   -0.0433   -0.0622   -0.0351
          61    0.0526   -0.0523    0.0469    0.0938   -0.0465    0.1576    0.0053   -0.0348
          62    0.0085    0.0034    0.0073   -0.0185    0.0356   -0.0923   -0.0904    0.0263
          63    0.0043    0.0856   -0.0413   -0.0747   -0.0113   -0.0373    0.1180   -0.0118
          64   -0.0336   -0.1228   -0.0641    0.0254    0.0707   -0.0818    0.0761    0.0196
          65   -0.0689   -0.0472    0.0310   -0.0753   -0.0613   -0.0000    0.0251    0.0126
          66   -0.0253   -0.0283    0.0340   -0.0084    0.0016   -0.0120    0.0136    0.0149
          67   -0.0496    0.0363    0.0513   -0.0023    0.0041   -0.0004   -0.0100    0.0018
          68    0.0759   -0.0268    0.0244    0.0567    0.0923   -0.0130    0.0455   -0.0385
          69   -0.0893    0.0626    0.1025    0.0006    0.0052    0.0038   -0.0162    0.0041
          70    0.0889   -0.0625   -0.1419   -0.0344   -0.0314   -0.0008   -0.0004   -0.0061
          71   -0.0144    0.0067   -0.0268   -0.0530   -0.0826    0.0326   -0.0690    0.0372
          72    0.0027   -0.0028   -0.0201   -0.0175   -0.0179    0.0043   -0.0072    0.0024


   Root No.      33        34        35        36        37        38        39        40

                33 A      34 A      35 A      36 A      37 A      38 A      39 A      40 A   

                1100.7    1110.0    1124.2    1142.9    1158.2    1170.2    1177.4    1195.7
  
           1    0.0039    0.0060    0.0063    0.0024    0.0064   -0.0013   -0.0070   -0.0066
           2    0.0061    0.0105    0.0122    0.0014    0.0114   -0.0017   -0.0103    0.0010
           3    0.0026    0.0046    0.0044    0.0017    0.0027    0.0006   -0.0015   -0.0041
           4   -0.0000    0.0015    0.0008   -0.0016   -0.0049    0.0012    0.0060    0.0083
           5   -0.0033   -0.0039   -0.0055    0.0059    0.0061   -0.0020   -0.0107   -0.0234
           6   -0.0027    0.0006   -0.0003   -0.0002   -0.0007   -0.0008    0.0021    0.0022
           7    0.0107   -0.0066   -0.0010   -0.0053    0.0044   -0.0058   -0.0048    0.0022
           8   -0.0263    0.0135    0.0024    0.0114   -0.0001   -0.0001    0.0058   -0.0248
           9    0.0218   -0.0090    0.0013   -0.0075   -0.0005    0.0022   -0.0028    0.0053
          10    0.0063   -0.0006    0.0085   -0.0076   -0.0047    0.0046   -0.0041   -0.0004
          11   -0.0097   -0.0032   -0.0095    0.0066    0.0098   -0.0112    0.0074   -0.0038
          12    0.0060    0.0003    0.0047   -0.0027   -0.0044    0.0079   -0.0065    0.0026
          13   -0.0021   -0.0068   -0.0049   -0.0014    0.0079   -0.0002   -0.0024    0.0112
          14   -0.0058   -0.0161   -0.0146   -0.0056    0.0182    0.0081    0.0024    0.0124
          15   -0.0055   -0.0116   -0.0009   -0.0016    0.0181    0.0059   -0.0013    0.0307
          16   -0.0077    0.0163   -0.0143   -0.0369    0.0007    0.0017   -0.0011   -0.0001
          17   -0.0107    0.0141   -0.0141   -0.0402    0.0023    0.0019   -0.0002    0.0006
          18   -0.0033    0.0052   -0.0037   -0.0134    0.0002   -0.0004    0.0010   -0.0004
          19    0.0062    0.0045   -0.0024    0.0053   -0.0119    0.0111    0.0217   -0.0169
          20    0.0002   -0.0006   -0.0061    0.0013   -0.0262   -0.0109    0.0052   -0.0024
          21   -0.0064   -0.0065   -0.0075   -0.0062   -0.0266   -0.0186   -0.0145    0.0034
          22   -0.0087   -0.0101   -0.0063   -0.0075    0.0057   -0.0114   -0.0125    0.0243
          23   -0.0015    0.0006   -0.0006   -0.0085   -0.0254    0.0086    0.0336    0.0591
          24    0.0018    0.0027    0.0007   -0.0008    0.0026    0.0074    0.0063    0.0081
          25   -0.0052    0.0132    0.0053    0.0077   -0.0028    0.0123    0.0042   -0.0244
          26    0.0422   -0.0154   -0.0001   -0.0116   -0.0048    0.0135    0.0001    0.0244
          27   -0.0005   -0.0020    0.0006    0.0076    0.0037   -0.0095    0.0039   -0.0495
          28    0.0033   -0.0177   -0.0101   -0.0030    0.0157   -0.0212    0.0105   -0.0006
          29    0.0059    0.0080    0.0126    0.0002   -0.0121    0.0333   -0.0269    0.0061
          30   -0.0184    0.0093   -0.0044    0.0015    0.0055   -0.0122    0.0173    0.0112
          31   -0.0052    0.0267   -0.0063    0.0229   -0.0078   -0.0142    0.0155    0.0035
          32   -0.0055    0.0023    0.0372   -0.0299   -0.0342   -0.0021   -0.0134   -0.0227
          33    0.0222    0.0196   -0.0140    0.0214   -0.0075   -0.0063   -0.0064   -0.0127
          34    0.0086   -0.0266    0.0311    0.0282   -0.0099    0.0039   -0.0076   -0.0049
          35    0.0161   -0.0034   -0.0070    0.0844    0.0061   -0.0070    0.0052    0.0065
          36   -0.0049   -0.0150    0.0223   -0.0087   -0.0055   -0.0021    0.0039   -0.0030
          37   -0.0337   -0.0408   -0.0227   -0.0183    0.0192    0.0170    0.0145    0.0327
          38   -0.0223   -0.0264   -0.0136   -0.0131    0.0118    0.0085    0.0062    0.0252
          39   -0.0185   -0.0267   -0.0186   -0.0113    0.0092    0.0170    0.0146    0.0080
          40    0.0020   -0.0022   -0.0057    0.0039   -0.0191    0.0070    0.0055   -0.0034
          41   -0.0093    0.0239    0.0326   -0.0037    0.0551   -0.0221   -0.0506   -0.0238
          42   -0.0051    0.0089    0.0138   -0.0066    0.0253   -0.0091   -0.0142    0.0053
          43   -0.0207    0.0030   -0.0068    0.0013    0.0154   -0.0099   -0.0099    0.0180
          44    0.0599   -0.0224    0.0080   -0.0160   -0.0074    0.0028    0.0135   -0.0644
          45   -0.0959    0.0414   -0.0066    0.0287    0.0082    0.0050   -0.0118    0.0706
          46   -0.0388    0.0178   -0.0095    0.0302   -0.0067    0.0518   -0.0340    0.0037
          47    0.0270   -0.0180    0.0044   -0.0214    0.0084   -0.0380    0.0226   -0.0043
          48   -0.0146    0.0082   -0.0097    0.0201   -0.0093    0.0228   -0.0176    0.0083
          49    0.0380    0.0263   -0.0214   -0.0074    0.0010   -0.0071    0.0025   -0.0037
          50    0.0411    0.0171   -0.0185   -0.0046    0.0082   -0.0002    0.0013   -0.0003
          51   -0.0121    0.0030    0.0000   -0.0167   -0.0031   -0.0012    0.0008   -0.0009
          52   -0.0452   -0.0254    0.0105   -0.0104    0.0426   -0.0071   -0.0126    0.0702
          53   -0.0484   -0.0676   -0.0461   -0.0134    0.0601    0.0696    0.0396   -0.0542
          54   -0.0186   -0.0832   -0.0981   -0.0089    0.0435    0.1400    0.0888   -0.2000
          55   -0.0393   -0.0997   -0.0978   -0.0091   -0.1434    0.0070   -0.0703   -0.0473
          56   -0.0781   -0.0025    0.0101   -0.0317    0.0788   -0.0546   -0.1100   -0.0032
          57   -0.0121   -0.0022   -0.0004   -0.0062    0.0129   -0.0053   -0.0221   -0.0044
          58   -0.0020    0.0249    0.0213    0.0045    0.0380    0.0013    0.0019   -0.0142
          59    0.0483   -0.0111    0.0213   -0.0346    0.1626   -0.1285   -0.0732   -0.0569
          60   -0.0222    0.1117    0.0937    0.0394    0.0853    0.0884    0.0813    0.0473
          61    0.0115    0.0054    0.0650   -0.0359    0.0691    0.1654   -0.0451   -0.0215
          62    0.0295    0.0005   -0.0124   -0.0268    0.0023   -0.1129    0.0961   -0.0047
          63   -0.0647    0.0011   -0.0470    0.0816   -0.0744    0.0046   -0.1047    0.0361
          64   -0.0358    0.0858   -0.0272    0.1611   -0.0429    0.0043   -0.0275   -0.0365
          65    0.0244    0.0143    0.0754   -0.1111   -0.0451   -0.0755    0.0871   -0.0958
          66    0.0165    0.0293   -0.0077    0.0212   -0.0135   -0.0149    0.0069   -0.0285
          67    0.0011   -0.0364    0.0346    0.0592   -0.0031    0.0009   -0.0023   -0.0037
          68   -0.0773   -0.1099    0.0916    0.1348    0.0195   -0.0220    0.0518    0.0225
          69    0.0096   -0.0284    0.0237    0.0729    0.0003   -0.0030   -0.0040   -0.0114
          70   -0.0024    0.0076   -0.0015   -0.0178    0.0063   -0.0027    0.0097   -0.0015
          71    0.1108    0.0663   -0.1186    0.0386    0.0393    0.0311   -0.0412    0.0179
          72    0.0104   -0.0013   -0.0000   -0.0139    0.0017    0.0031   -0.0022   -0.0001


   Root No.      41        42        43        44        45        46        47        48

                41 A      42 A      43 A      44 A      45 A      46 A      47 A      48 A   

                1200.4    1207.2    1223.2    1236.1    1243.0    1255.9    1259.0    1266.4
  
           1   -0.0089    0.0076    0.0003   -0.0021    0.0050   -0.0099    0.0069   -0.0023
           2   -0.0133    0.0122   -0.0032    0.0005    0.0132   -0.0232    0.0104   -0.0079
           3   -0.0020    0.0057   -0.0014   -0.0006    0.0046   -0.0053    0.0028   -0.0011
           4    0.0005   -0.0013   -0.0026   -0.0055    0.0004   -0.0032   -0.0028   -0.0027
           5   -0.0054    0.0017    0.0050    0.0085   -0.0002    0.0045    0.0046    0.0035
           6    0.0014   -0.0026   -0.0006    0.0037    0.0047   -0.0029   -0.0009   -0.0018
           7    0.0063    0.0036   -0.0046   -0.0019   -0.0022   -0.0006   -0.0006   -0.0006
           8   -0.0175   -0.0131    0.0004    0.0044    0.0025    0.0021   -0.0054   -0.0038
           9    0.0005    0.0059   -0.0010    0.0038   -0.0023   -0.0000    0.0043    0.0018
          10    0.0038    0.0004    0.0005   -0.0026    0.0030   -0.0016   -0.0031    0.0017
          11   -0.0047   -0.0061    0.0080   -0.0040    0.0077    0.0006    0.0009    0.0059
          12    0.0036    0.0032    0.0020    0.0008   -0.0008   -0.0005   -0.0033   -0.0021
          13   -0.0047   -0.0109    0.0028    0.0003   -0.0052   -0.0016    0.0004   -0.0025
          14   -0.0042   -0.0119    0.0042    0.0012   -0.0087   -0.0000   -0.0019   -0.0038
          15   -0.0162   -0.0075   -0.0066    0.0016   -0.0055    0.0240   -0.0139    0.0082
          16   -0.0030    0.0014   -0.0019    0.0003    0.0029    0.0042   -0.0034    0.0001
          17   -0.0016   -0.0035    0.0019   -0.0004   -0.0020    0.0003   -0.0005   -0.0008
          18   -0.0003    0.0007    0.0027    0.0016   -0.0035   -0.0053   -0.0008    0.0008
          19    0.0201   -0.0055   -0.0014   -0.0115   -0.0154    0.0366   -0.0203    0.0139
          20    0.0175   -0.0207    0.0089    0.0048   -0.0254    0.0499   -0.0176    0.0185
          21   -0.0080   -0.0102    0.0101   -0.0024   -0.0118   -0.0120    0.0081   -0.0071
          22    0.0223   -0.0131   -0.0009    0.0508    0.0213   -0.0061    0.0087   -0.0015
          23    0.0119   -0.0118   -0.0233   -0.0205    0.0101   -0.0259   -0.0187   -0.0220
          24    0.0144    0.0092   -0.0020   -0.0047   -0.0034    0.0056   -0.0004    0.0045
          25   -0.0237    0.0003   -0.0031   -0.0006   -0.0069    0.0013    0.0063    0.0004
          26    0.0026    0.0185    0.0171    0.0058   -0.0012    0.0045    0.0264    0.0209
          27   -0.0276   -0.0363   -0.0035    0.0080    0.0110    0.0008   -0.0279   -0.0176
          28   -0.0038   -0.0226    0.0298   -0.0192    0.0208   -0.0001   -0.0026    0.0134
          29    0.0130    0.0071   -0.0059    0.0098   -0.0183   -0.0033   -0.0146   -0.0236
          30    0.0050    0.0070   -0.0329    0.0047   -0.0184    0.0007    0.0365    0.0137
          31   -0.0080    0.0593   -0.0038    0.0199   -0.0066    0.0078   -0.0073   -0.0185
          32    0.0058    0.0068   -0.0251   -0.0171    0.0335   -0.0003    0.0087    0.0305
          33    0.0026    0.0074    0.0095   -0.0041    0.0147   -0.0105    0.0009   -0.0036
          34    0.0075   -0.0103   -0.0049   -0.0096    0.0120    0.0127    0.0131   -0.0088
          35   -0.0055    0.0254   -0.0071    0.0129    0.0060    0.0063   -0.0193   -0.0008
          36    0.0021    0.0040   -0.0017   -0.0019    0.0076    0.0179    0.0041   -0.0120
          37    0.0079   -0.0028   -0.0077    0.0153    0.0082   -0.0158   -0.0065   -0.0104
          38    0.0047   -0.0000   -0.0063    0.0164    0.0094   -0.0128   -0.0021   -0.0071
          39    0.0118    0.0038   -0.0068    0.0034    0.0063   -0.0094   -0.0021   -0.0045
          40   -0.0048   -0.0029   -0.0003    0.0032    0.0050   -0.0035   -0.0038   -0.0037
          41    0.0020    0.0273    0.0193   -0.0222   -0.0513    0.0479    0.0142    0.0315
          42    0.0115    0.0072    0.0049   -0.0014   -0.0125    0.0144    0.0032    0.0097
          43    0.0329    0.0067    0.0024   -0.0228   -0.0001    0.0050   -0.0041   -0.0062
          44   -0.0725   -0.0242   -0.0143    0.0476   -0.0012    0.0032    0.0063   -0.0024
          45    0.0813    0.0248    0.0306   -0.0584    0.0035   -0.0016   -0.0104    0.0078
          46   -0.0051    0.0042   -0.0356    0.0374   -0.0505    0.0080    0.0118   -0.0376
          47    0.0036   -0.0109    0.0367   -0.0331    0.0459   -0.0090   -0.0144    0.0288
          48    0.0004    0.0002   -0.0108    0.0102   -0.0153    0.0006    0.0041   -0.0144
          49    0.0046   -0.0024    0.0240    0.0078   -0.0253   -0.0456    0.0048    0.0021
          50    0.0042   -0.0143    0.0275    0.0050   -0.0314   -0.0463    0.0118    0.0013
          51   -0.0010    0.0054   -0.0044    0.0002    0.0060    0.0091   -0.0038   -0.0019
          52   -0.0916    0.0028   -0.0061   -0.0496    0.0027   -0.0754    0.0134   -0.0367
          53    0.0058    0.0491   -0.0139   -0.0301    0.0310   -0.0641    0.0208   -0.0179
          54    0.1345    0.0884   -0.0203    0.0046    0.0552   -0.0274    0.0224    0.0103
          55   -0.1064    0.1050    0.0217   -0.1479   -0.1009   -0.0220    0.0470    0.0057
          56    0.0583    0.0645    0.0598    0.0761   -0.0081    0.0425    0.0643    0.0587
          57    0.0118    0.0239    0.0138    0.0056   -0.0085    0.0105    0.0170    0.0152
          58    0.0005    0.0118    0.0031   -0.0459   -0.0113   -0.0002   -0.0090   -0.0012
          59    0.1103    0.0364   -0.1101   -0.1603   -0.0607   -0.0115   -0.0935   -0.0629
          60   -0.0300    0.0316    0.1549   -0.1156    0.0146    0.0214    0.0248    0.0699
          61   -0.0202   -0.0632   -0.0259    0.0278   -0.0732   -0.0025   -0.0073   -0.0275
          62   -0.0283    0.0282   -0.0675    0.0061   -0.0143    0.0142    0.0700    0.0305
          63    0.0759    0.0219    0.1209   -0.0374    0.0817   -0.0215   -0.0914   -0.0267
          64    0.1001   -0.1494   -0.0783   -0.0429   -0.0154   -0.0605    0.1260    0.0391
          65    0.0898   -0.0005    0.1469    0.0521   -0.0926   -0.0923    0.0149   -0.1233
          66    0.0379   -0.0344    0.0260   -0.0003   -0.0181   -0.0370    0.0285   -0.0245
          67    0.0097   -0.0189    0.0051    0.0054   -0.0312   -0.0610   -0.0123    0.0452
          68    0.0201   -0.0230    0.0543   -0.0112   -0.0749   -0.0063    0.0946   -0.0667
          69    0.0069   -0.0210    0.0047    0.0310   -0.0700   -0.1668   -0.0815    0.1489
          70   -0.0020    0.0008   -0.0023    0.0406   -0.0730   -0.1447   -0.0930    0.1463
          71    0.0035   -0.1058    0.0304   -0.0567   -0.0071    0.0145    0.1032   -0.0440
          72    0.0025   -0.0134    0.0065   -0.0098    0.0044    0.0179    0.0200   -0.0205


   Root No.      49        50        51        52        53        54        55        56

                49 A      50 A      51 A      52 A      53 A      54 A      55 A      56 A   

                1280.3    1336.7    1345.7    1366.8    1371.1    1382.5    2493.4    2505.4
  
           1   -0.0011   -0.0028    0.0018   -0.0309   -0.0008   -0.0017   -0.0001    0.0003
           2   -0.0016    0.0011    0.0018    0.0286    0.0016   -0.0005    0.0006   -0.0001
           3    0.0009   -0.0013    0.0009   -0.0117    0.0006   -0.0003   -0.0002   -0.0000
           4    0.0002   -0.0014   -0.0058   -0.0033   -0.0045   -0.0060   -0.0155   -0.0040
           5    0.0001   -0.0001   -0.0036    0.0067   -0.0022   -0.0028    0.0059    0.0018
           6    0.0018   -0.0036   -0.0162   -0.0016   -0.0118   -0.0170   -0.0280   -0.0072
           7    0.0002   -0.0010   -0.0037   -0.0007    0.0006    0.0014    0.0003   -0.0019
           8    0.0024   -0.0011   -0.0080    0.0014    0.0033    0.0093    0.0055   -0.0317
           9   -0.0002   -0.0037   -0.0163   -0.0010    0.0051    0.0105    0.0037   -0.0218
          10   -0.0001    0.0003    0.0023    0.0004   -0.0215    0.0125    0.0048   -0.0012
          11   -0.0021    0.0009    0.0011    0.0013   -0.0092    0.0090    0.0072   -0.0007
          12    0.0008   -0.0002    0.0005    0.0000   -0.0024    0.0011   -0.0004   -0.0002
          13   -0.0073    0.0015   -0.0006   -0.0027   -0.0015    0.0008   -0.0001    0.0001
          14   -0.0064    0.0018   -0.0012   -0.0016   -0.0024    0.0017    0.0000   -0.0002
          15    0.0072    0.0021   -0.0028   -0.0058   -0.0021   -0.0009   -0.0006   -0.0004
          16   -0.0077   -0.0092    0.0009    0.0004   -0.0004    0.0004   -0.0000   -0.0003
          17    0.0008   -0.0019    0.0004   -0.0003   -0.0008    0.0005    0.0002   -0.0002
          18    0.0070    0.0317   -0.0043   -0.0039   -0.0006    0.0004    0.0005    0.0005
          19    0.0078    0.0030   -0.0073    0.0374   -0.0020   -0.0030   -0.0006   -0.0007
          20    0.0044   -0.0013   -0.0043   -0.0437   -0.0046   -0.0015   -0.0002   -0.0000
          21   -0.0133    0.0013    0.0011    0.0105   -0.0033    0.0010    0.0009    0.0004
          22    0.0030    0.0003    0.0123   -0.0144    0.0170    0.0244   -0.0040   -0.0007
          23    0.0026   -0.0028   -0.0041   -0.0141    0.0055    0.0090    0.0031    0.0013
          24    0.0007    0.0017    0.0079    0.0007    0.0184    0.0279   -0.0037   -0.0009
          25   -0.0018    0.0016    0.0059    0.0048   -0.0127   -0.0077    0.0016    0.0003
          26   -0.0088    0.0066    0.0327    0.0019   -0.0150   -0.0341    0.0021   -0.0077
          27    0.0086    0.0077    0.0368    0.0029   -0.0088   -0.0245    0.0014   -0.0031
          28   -0.0079    0.0020   -0.0072   -0.0001    0.0407   -0.0176    0.0009    0.0004
          29    0.0019   -0.0028   -0.0074   -0.0029    0.0169   -0.0109   -0.0000    0.0005
          30   -0.0119   -0.0007   -0.0091    0.0002   -0.0121    0.0109   -0.0004    0.0023
          31    0.0338   -0.0107    0.0076    0.0016   -0.0145    0.0070   -0.0003    0.0002
          32    0.0261   -0.0003    0.0020    0.0026    0.0091   -0.0050    0.0001    0.0002
          33    0.0100   -0.0020    0.0013    0.0027    0.0067   -0.0025    0.0003    0.0001
          34   -0.0075    0.0078   -0.0021   -0.0002    0.0029   -0.0018   -0.0000    0.0002
          35   -0.0444    0.0016   -0.0015   -0.0003    0.0001   -0.0003   -0.0000    0.0005
          36   -0.0176   -0.0339    0.0044    0.0042    0.0011   -0.0008    0.0001    0.0015
          37   -0.0020    0.0266   -0.0077    0.3388    0.0071    0.0043    0.0003   -0.0045
          38   -0.0003    0.0201   -0.0064    0.2646    0.0055    0.0022   -0.0129    0.0024
          39   -0.0008    0.0111   -0.0029    0.1358    0.0021    0.0036    0.0034   -0.0003
          40    0.0036   -0.0068   -0.0301   -0.0058   -0.0210   -0.0286    0.2844    0.0736
          41   -0.0169    0.0395    0.1878   -0.0011    0.1409    0.1967   -0.1445   -0.0376
          42   -0.0046    0.0121    0.0548    0.0040    0.0424    0.0645    0.4924    0.1287
          43   -0.0042    0.0192    0.0556    0.0039   -0.0189   -0.0439   -0.0076    0.0411
          44    0.0118   -0.0248   -0.1236   -0.0024    0.0393    0.0953   -0.1061    0.5741
          45   -0.0141    0.0360    0.1736    0.0061   -0.0530   -0.1340   -0.0655    0.3678
          46    0.0109   -0.0049   -0.0242   -0.0064    0.2017   -0.1264   -0.0829    0.0199
          47   -0.0113    0.0038    0.0134    0.0056   -0.1650    0.1002   -0.1151    0.0241
          48    0.0058   -0.0032   -0.0119   -0.0088    0.0775   -0.0553    0.0165   -0.0039
          49    0.0648    0.2421   -0.0333   -0.0264   -0.0006    0.0014    0.0011   -0.0019
          50    0.0758    0.2363   -0.0324   -0.0261   -0.0032    0.0021   -0.0026   -0.0025
          51   -0.0171   -0.0240    0.0035    0.0020    0.0005   -0.0006   -0.0103   -0.0058
          52   -0.0182   -0.0110    0.0028   -0.1185   -0.0116   -0.0109    0.0051    0.0042
          53   -0.0029   -0.0140    0.0065   -0.1888   -0.0011   -0.0036   -0.0017   -0.0036
          54    0.0156   -0.0008    0.0074   -0.0333    0.0191    0.0138    0.0003    0.0017
          55   -0.0445    0.0043   -0.0001    0.0257    0.0093    0.0352    0.0025    0.0011
          56   -0.0025   -0.0246   -0.1176   -0.0081   -0.0666   -0.0800    0.0045    0.0009
          57   -0.0035   -0.0016   -0.0083    0.0004    0.0015    0.0057   -0.0280   -0.0047
          58   -0.0033   -0.0027   -0.0210    0.0051    0.0046    0.0009   -0.0092   -0.0056
          59    0.0127   -0.0060   -0.0447    0.0094   -0.0095   -0.0183    0.0018    0.0074
          60   -0.0295   -0.0091   -0.0767    0.0121    0.0538    0.0081    0.0030   -0.0028
          61   -0.0482    0.0118    0.0186    0.0008   -0.0847    0.0276    0.0061   -0.0103
          62    0.0070    0.0004    0.0107    0.0007    0.0877   -0.0740    0.0086   -0.0138
          63    0.0336   -0.0163   -0.0491   -0.0035    0.0017    0.0556    0.0041   -0.0081
          64   -0.0972    0.0257   -0.0178    0.0046   -0.0242    0.0196    0.0003    0.0009
          65   -0.1018   -0.0423    0.0038    0.0057    0.0108   -0.0053    0.0003    0.0001
          66   -0.0383   -0.0056   -0.0030    0.0030   -0.0011    0.0030   -0.0045   -0.0002
          67    0.0432   -0.0004    0.0020    0.0005    0.0021   -0.0024    0.0004    0.0010
          68    0.2057   -0.0258    0.0135    0.0071   -0.0235    0.0133   -0.0000   -0.0010
          69    0.0472   -0.0361    0.0082    0.0034    0.0110   -0.0086   -0.0000   -0.0007
          70    0.0210   -0.1526    0.0251    0.0152    0.0073   -0.0080    0.0002   -0.0034
          71    0.1497   -0.1866    0.0281    0.0325   -0.0069    0.0087    0.0001    0.0034
          72    0.0087   -0.0497    0.0059    0.0071   -0.0000    0.0010    0.0001   -0.0130


   Root No.      57        58        59        60        61        62        63        64

                57 A      58 A      59 A      60 A      61 A      62 A      63 A      64 A   

                2519.5    2529.0    2540.1    2650.6    2664.7    2675.7    2681.6    2683.0
  
           1    0.0172    0.0063   -0.0018   -0.0000    0.0000    0.0004   -0.0003    0.0006
           2   -0.0229   -0.0086    0.0025   -0.0000    0.0002   -0.0024    0.0015   -0.0023
           3    0.0051    0.0019   -0.0005   -0.0001   -0.0000    0.0001   -0.0002    0.0002
           4    0.0006   -0.0031    0.0001   -0.0001   -0.0007   -0.0015    0.0000    0.0000
           5   -0.0014    0.0004    0.0002    0.0000    0.0006    0.0026    0.0003   -0.0005
           6    0.0023   -0.0049    0.0000   -0.0001   -0.0008   -0.0024   -0.0003    0.0005
           7   -0.0000    0.0001   -0.0001   -0.0003   -0.0022    0.0001   -0.0001   -0.0000
           8   -0.0009    0.0023   -0.0004   -0.0002    0.0025   -0.0002   -0.0003   -0.0002
           9   -0.0004    0.0011   -0.0001   -0.0003   -0.0011   -0.0000   -0.0002   -0.0001
          10    0.0088   -0.0167    0.0020   -0.0000    0.0001   -0.0001   -0.0004   -0.0002
          11    0.0095   -0.0186    0.0026   -0.0001    0.0009   -0.0004   -0.0027   -0.0011
          12   -0.0013    0.0025   -0.0004    0.0000   -0.0001    0.0001    0.0003    0.0001
          13    0.0004    0.0003   -0.0000    0.0003    0.0000    0.0000    0.0004    0.0009
          14    0.0009   -0.0002    0.0005    0.0005    0.0000   -0.0003    0.0009    0.0004
          15    0.0003    0.0001    0.0003    0.0007    0.0001    0.0012    0.0003    0.0022
          16    0.0001    0.0002    0.0025    0.0004    0.0000    0.0000   -0.0002   -0.0002
          17   -0.0003   -0.0007   -0.0090   -0.0013   -0.0001    0.0000    0.0001    0.0001
          18   -0.0014   -0.0031   -0.0358   -0.0045   -0.0002   -0.0001    0.0002    0.0005
          19    0.0001    0.0001   -0.0000    0.0001    0.0012    0.0134   -0.0085    0.0129
          20   -0.0068   -0.0023    0.0005   -0.0003   -0.0002   -0.0117    0.0105   -0.0161
          21   -0.0017   -0.0007   -0.0002    0.0003    0.0000    0.0048   -0.0066    0.0097
          22   -0.0010   -0.0012    0.0002    0.0001   -0.0039    0.0026   -0.0009    0.0012
          23    0.0007    0.0010   -0.0002   -0.0000   -0.0016    0.0053    0.0014   -0.0023
          24    0.0009   -0.0001   -0.0003    0.0002   -0.0065   -0.0340   -0.0059    0.0106
          25    0.0001   -0.0001    0.0003    0.0006   -0.0487    0.0021   -0.0026   -0.0013
          26   -0.0005    0.0008   -0.0002   -0.0004    0.0078   -0.0023   -0.0006    0.0005
          27   -0.0003    0.0008   -0.0002   -0.0001    0.0078   -0.0034   -0.0026   -0.0000
          28    0.0005   -0.0013    0.0006   -0.0012   -0.0000   -0.0011   -0.0146   -0.0062
          29    0.0024   -0.0043    0.0007   -0.0000    0.0040   -0.0020   -0.0192   -0.0073
          30   -0.0012    0.0020    0.0001    0.0005    0.0068   -0.0015   -0.0119   -0.0040
          31   -0.0010    0.0012   -0.0001   -0.0009    0.0007    0.0003   -0.0042   -0.0035
          32   -0.0007    0.0006   -0.0006   -0.0018   -0.0001    0.0006   -0.0030   -0.0032
          33    0.0001   -0.0006    0.0015    0.0082    0.0007   -0.0030    0.0089    0.0126
          34    0.0000   -0.0005   -0.0047    0.0220    0.0001    0.0008   -0.0017   -0.0032
          35   -0.0002   -0.0004   -0.0033    0.0010   -0.0000    0.0002   -0.0006   -0.0007
          36   -0.0002   -0.0002   -0.0016   -0.0376   -0.0006   -0.0010    0.0029    0.0041
          37   -0.2819   -0.1050    0.0297   -0.0001    0.0016   -0.0084    0.0041   -0.0071
          38    0.4662    0.1708   -0.0487    0.0002   -0.0029    0.0173   -0.0093    0.0150
          39   -0.0895   -0.0348    0.0095    0.0002    0.0006   -0.0024    0.0010   -0.0020
          40   -0.0205    0.0525   -0.0007    0.0010    0.0075    0.0108    0.0009   -0.0021
          41    0.0101   -0.0188   -0.0009   -0.0003   -0.0063   -0.0058   -0.0010    0.0020
          42   -0.0370    0.0912   -0.0017    0.0020    0.0109    0.0162    0.0004   -0.0021
          43    0.0008   -0.0029    0.0016    0.0011   -0.0010   -0.0001    0.0009    0.0002
          44    0.0146   -0.0395    0.0076    0.0067    0.0044    0.0003    0.0073    0.0048
          45    0.0092   -0.0238    0.0033    0.0058    0.0018   -0.0008    0.0029    0.0025
          46   -0.1468    0.2802   -0.0356    0.0008   -0.0054    0.0027    0.0093    0.0044
          47   -0.1840    0.3567   -0.0461    0.0022   -0.0064    0.0033    0.0150    0.0076
          48    0.0295   -0.0554    0.0073   -0.0003    0.0013   -0.0009   -0.0040   -0.0017
          49   -0.0016   -0.0030   -0.0397   -0.0020   -0.0004    0.0001    0.0010    0.0006
          50    0.0069    0.0144    0.1710    0.0167    0.0009    0.0002   -0.0014   -0.0023
          51    0.0255    0.0561    0.6484    0.0513    0.0027    0.0007   -0.0030   -0.0075
          52    0.0225    0.0096   -0.0024   -0.0021   -0.0057   -0.1407    0.1213   -0.1846
          53   -0.0235   -0.0096    0.0022    0.0027    0.0073    0.1683   -0.1447    0.2204
          54    0.0150    0.0065   -0.0017   -0.0014   -0.0047   -0.1002    0.0858   -0.1312
          55    0.0002    0.0004   -0.0002    0.0004   -0.0033   -0.0181   -0.0036    0.0066
          56   -0.0002    0.0010   -0.0005    0.0004   -0.0120   -0.0845   -0.0147    0.0259
          57   -0.0038   -0.0102    0.0039   -0.0040    0.0706    0.4776    0.0867   -0.1468
          58    0.0033    0.0033   -0.0043   -0.0075    0.6872   -0.0472    0.0322    0.0216
          59    0.0008   -0.0007    0.0007    0.0015   -0.1142    0.0084   -0.0053   -0.0042
          60    0.0001   -0.0003    0.0008    0.0007   -0.1034    0.0070   -0.0051   -0.0038
          61    0.0072   -0.0112   -0.0013    0.0008   -0.0399    0.0211    0.1857    0.0680
          62    0.0091   -0.0151   -0.0041    0.0014   -0.0568    0.0306    0.2678    0.0982
          63    0.0070   -0.0114   -0.0015    0.0010   -0.0374    0.0210    0.1770    0.0647
          64    0.0001   -0.0001    0.0020    0.0262    0.0042   -0.0080    0.0241    0.0324
          65    0.0016   -0.0017    0.0027    0.0257    0.0033   -0.0091    0.0268    0.0359
          66    0.0018    0.0095   -0.0142   -0.1384   -0.0168    0.0431   -0.1315   -0.1780
          67    0.0011    0.0023    0.0578   -0.2960    0.0001   -0.0121    0.0263    0.0471
          68   -0.0005    0.0013    0.0008    0.0350    0.0001    0.0014   -0.0036   -0.0057
          69   -0.0001   -0.0001   -0.0119    0.0958   -0.0003    0.0041   -0.0086   -0.0164
          70   -0.0005    0.0002   -0.0056    0.0266    0.0003    0.0007   -0.0020   -0.0034
          71   -0.0002    0.0004    0.0070   -0.0546   -0.0009   -0.0008    0.0034    0.0056
          72   -0.0015   -0.0053   -0.0557    0.3930    0.0079    0.0063   -0.0230   -0.0271


   Root No.      65        66

                65 A      66 A   

                2684.9    2715.5
  
           1    0.0000   -0.0000
           2   -0.0002   -0.0000
           3    0.0001   -0.0001
           4    0.0001   -0.0000
           5   -0.0003    0.0000
           6    0.0003   -0.0001
           7   -0.0002   -0.0002
           8   -0.0003   -0.0002
           9   -0.0002   -0.0003
          10    0.0000    0.0001
          11   -0.0010   -0.0002
          12   -0.0000   -0.0000
          13   -0.0003   -0.0002
          14   -0.0012   -0.0005
          15   -0.0017   -0.0006
          16    0.0000   -0.0027
          17   -0.0005   -0.0019
          18   -0.0014   -0.0012
          19    0.0033   -0.0004
          20   -0.0044    0.0006
          21    0.0031    0.0001
          22    0.0001   -0.0000
          23   -0.0013    0.0001
          24    0.0066   -0.0006
          25   -0.0029    0.0003
          26    0.0004   -0.0003
          27   -0.0002    0.0000
          28   -0.0059    0.0006
          29   -0.0105   -0.0001
          30   -0.0081   -0.0001
          31    0.0037   -0.0020
          32    0.0052    0.0047
          33   -0.0240   -0.0038
          34    0.0048   -0.0310
          35    0.0018    0.0077
          36   -0.0073   -0.0150
          37    0.0012   -0.0005
          38   -0.0012    0.0007
          39    0.0005    0.0001
          40   -0.0005    0.0007
          41    0.0003   -0.0002
          42   -0.0004    0.0016
          43    0.0010    0.0005
          44    0.0075    0.0045
          45    0.0040    0.0044
          46    0.0010    0.0011
          47    0.0003    0.0016
          48   -0.0002   -0.0001
          49   -0.0007    0.0010
          50    0.0058   -0.0031
          51    0.0194   -0.0101
          52   -0.0508    0.0061
          53    0.0605   -0.0068
          54   -0.0355    0.0046
          55    0.0038   -0.0001
          56    0.0161   -0.0016
          57   -0.0901    0.0078
          58    0.0379   -0.0041
          59   -0.0067    0.0009
          60   -0.0053    0.0005
          61    0.1021   -0.0012
          62    0.1475   -0.0016
          63    0.0968   -0.0013
          64   -0.0609   -0.0068
          65   -0.0688   -0.0099
          66    0.3345    0.0394
          67   -0.0696    0.4381
          68    0.0080   -0.0448
          69    0.0234   -0.1690
          70    0.0050    0.0034
          71   -0.0095   -0.0502
          72    0.0553    0.3885


           MASS-WEIGHTED COORDINATE ANALYSIS (NORMAL COORDINATES)


   Root No.       1         2         3         4         5         6         7         8

                 1 A       2 A       3 A       4 A       5 A       6 A       7 A       8 A   

                  41.0      71.9      81.6     121.2     157.7     188.0     219.1     253.2
  
           1   -0.0984   -0.2518   -0.0505    0.2008    0.0970    0.0336    0.1424   -0.3935
           2    0.0585    0.2938   -0.0405   -0.3298   -0.0873   -0.1024   -0.0686    0.0915
           3   -0.0318   -0.3293    0.1341    0.0864    0.0920   -0.0714    0.0661    0.1522
           4   -0.0465   -0.0958   -0.1603   -0.0013   -0.0940   -0.2165   -0.2531    0.5848
           5   -0.1485   -0.1137    0.0650    0.0180   -0.0176    0.1712   -0.1340    0.1339
           6    0.1096    0.1309   -0.5141   -0.2211    0.2755    0.3876   -0.0203   -0.1339
           7    0.0085    0.0263    0.5277    0.0347    0.5697    0.1914   -0.1488    0.1219
           8   -0.1518   -0.0882   -0.0087   -0.0339    0.0642    0.2514   -0.0020   -0.0357
           9   -0.2105   -0.0739    0.0421   -0.0473   -0.2547    0.1326    0.3529    0.0030
          10    0.1310    0.3504    0.0624    0.0765   -0.0484    0.2789    0.3842    0.2097
          11    0.1552    0.3726    0.1214    0.3136   -0.0664    0.0392   -0.1189   -0.0632
          12    0.0258    0.2854    0.2231    0.2650   -0.2885   -0.1994   -0.0128   -0.2268
          13    0.0277    0.0490    0.0977   -0.3144   -0.1118   -0.1211   -0.2265   -0.3141
          14    0.0615   -0.1227   -0.1149    0.1531    0.1078   -0.1340    0.3160    0.1384
          15   -0.0589   -0.0616    0.1638   -0.1976   -0.0608    0.0283   -0.2110   -0.0175
          16   -0.3029    0.0184   -0.2696    0.3844   -0.1734    0.1476   -0.2878   -0.0156
          17    0.0410   -0.1327    0.0509   -0.1435    0.0386   -0.2581    0.3016   -0.0297
          18    0.6439   -0.1665   -0.0928    0.2088    0.0865   -0.0386   -0.1398   -0.0393
          19    0.0119    0.0006   -0.0814   -0.0683   -0.0190   -0.1704   -0.0116    0.0120
          20    0.0128    0.1040   -0.0216   -0.1211    0.0018   -0.0157    0.0544   -0.0465
          21   -0.0442   -0.0679    0.1217   -0.1207   -0.0443    0.0135   -0.1435    0.0250
          22    0.0237    0.0251   -0.1356   -0.0597   -0.0108   -0.1622    0.0169    0.0395
          23   -0.1193   -0.0677    0.1107    0.0148    0.0032    0.1415   -0.0073   -0.0988
          24   -0.0289    0.0177   -0.0374   -0.0641   -0.0014    0.0559   -0.0405    0.0514
          25    0.0515    0.0084    0.0453   -0.0771    0.0413   -0.0628    0.0551   -0.0241
          26   -0.0912   -0.0455   -0.1005   -0.0370    0.0279    0.1083   -0.0928   -0.0271
          27   -0.1026    0.0098    0.0607    0.0067   -0.0873   -0.0045    0.0277    0.0476
          28    0.0530    0.0110    0.0201   -0.1425   -0.0205   -0.0336    0.1357   -0.0827
          29    0.0567    0.0825    0.0162    0.0621    0.0305   -0.0065   -0.1653   -0.0482
          30   -0.0986    0.0103    0.0515   -0.0105   -0.1117   -0.0039    0.0314    0.0253
          31    0.0569    0.0036    0.0161   -0.1518    0.0001   -0.0499    0.1355   -0.0741
          32    0.0607   -0.1415    0.0085   -0.0251   -0.0177   -0.1197   -0.0332   -0.0525
[...]
 REDUCED MASS        0.8554         C  7 -- H 18          +8.2% ( 42.9%)      1.5%
 EFFECTIVE MASS      8.7902
 FORCE CONSTANT      0.5474

 VIBRATION         29   29A           ATOM PAIR      ENERGY CONTRIBUTION    RADIAL
 FREQUENCY          1045.27         C  7 -- H 18          +7.6% ( 38.0%)      9.2%
 TRANSITION DIPOLE   0.8261         C 12 -- H 23          +6.8% ( 35.9%)      4.8%
 TRAVEL (Ang.)       0.4388         C 12 -- H 24          +6.1% ( 34.2%)     20.6%
 REDUCED MASS        0.3350         C 11 -- H 22          +5.9% ( 33.6%)      0.8%
 EFFECTIVE MASS      7.0439
 FORCE CONSTANT      0.2157

 VIBRATION         30   30A           ATOM PAIR      ENERGY CONTRIBUTION    RADIAL
 FREQUENCY          1072.65         C 10 -- H 21         +15.9% ( 52.3%)      7.1%
 TRANSITION DIPOLE   0.6405         O  4 -- C 10         +15.2% ( 51.2%)     99.5%
 TRAVEL (Ang.)       0.2890         O  2 -- C  8         +10.9% ( 43.3%)     97.9%
 REDUCED MASS        0.7528         C  8 -- H 19          +8.2% ( 37.6%)     15.2%
 EFFECTIVE MASS      7.6627
 FORCE CONSTANT      0.5103

 VIBRATION         31   31A           ATOM PAIR      ENERGY CONTRIBUTION    RADIAL
 FREQUENCY          1079.43         C 10 -- H 21         +11.3% ( 46.2%)     17.4%
 TRANSITION DIPOLE   0.4746         C  8 -- C  9          +9.0% ( 41.3%)     78.3%
 TRAVEL (Ang.)       0.3730         O  3 -- C  9          +8.2% ( 39.5%)     92.1%
 REDUCED MASS        0.4490         C  9 -- C 10          +7.8% ( 38.4%)      2.5%
 EFFECTIVE MASS      6.8884
 FORCE CONSTANT      0.3083

 VIBRATION         32   32A           ATOM PAIR      ENERGY CONTRIBUTION    RADIAL
 FREQUENCY          1094.61         C  8 -- H 19         +16.7% ( 49.9%)      2.8%
 TRANSITION DIPOLE   1.1760         C  7 -- H 18         +16.3% ( 49.3%)      0.2%
 TRAVEL (Ang.)       0.4143         O  2 -- H 14         +11.7% ( 41.8%)      0.0%
 REDUCED MASS        0.3589         O  2 -- C  8          +9.5% ( 37.5%)     94.3%
 EFFECTIVE MASS      4.9489
 FORCE CONSTANT      0.2533

 VIBRATION         33   33A           ATOM PAIR      ENERGY CONTRIBUTION    RADIAL
 FREQUENCY          1100.69         O  3 -- C  9         +17.0% ( 56.9%)     98.7%
 TRANSITION DIPOLE   1.1964         O  3 -- H 15         +12.2% ( 48.1%)      0.0%
 TRAVEL (Ang.)       0.2705         C  9 -- C 10          +9.2% ( 41.8%)     20.8%
 REDUCED MASS        0.8375         C  8 -- C  9          +8.3% ( 39.6%)     47.7%
 EFFECTIVE MASS      7.5775
 FORCE CONSTANT      0.5978

 VIBRATION         34   34A           ATOM PAIR      ENERGY CONTRIBUTION    RADIAL
 FREQUENCY          1110.03         C 11 -- C 12         +10.0% ( 41.9%)     15.4%
 TRANSITION DIPOLE   0.2867         C 12 -- H 23          +9.3% ( 40.3%)     21.0%
 TRAVEL (Ang.)       0.3750         O  5 -- C 11          +8.5% ( 38.6%)     81.4%
 REDUCED MASS        0.4321         O  6 -- C 12          +8.0% ( 37.5%)     80.5%
 EFFECTIVE MASS      6.8331
 FORCE CONSTANT      0.3137

 VIBRATION         35   35A           ATOM PAIR      ENERGY CONTRIBUTION    RADIAL
 FREQUENCY          1124.18         C 11 -- C 12         +16.2% ( 53.1%)     85.0%
 TRANSITION DIPOLE   0.4010         C 12 -- H 24         +10.8% ( 43.3%)     14.9%
 TRAVEL (Ang.)       0.3151         C 12 -- H 23          +9.6% ( 40.9%)     16.8%
 REDUCED MASS        0.6041         O  6 -- C 12          +9.2% ( 40.2%)     62.7%
 EFFECTIVE MASS      6.6314
 FORCE CONSTANT      0.4498

 VIBRATION         36   36A           ATOM PAIR      ENERGY CONTRIBUTION    RADIAL
 FREQUENCY          1142.94         O  6 -- C 12         +25.7% ( 72.1%)     88.7%
 TRANSITION DIPOLE   0.6118         C 11 -- C 12         +19.6% ( 63.0%)     80.4%
 TRAVEL (Ang.)       0.1615         C 12 -- H 23         +15.1% ( 55.3%)      8.8%
 REDUCED MASS        2.2615         C 12 -- H 24         +12.5% ( 50.3%)      3.5%
 EFFECTIVE MASS      9.3209
 FORCE CONSTANT      1.7406

 VIBRATION         37   37A           ATOM PAIR      ENERGY CONTRIBUTION    RADIAL
 FREQUENCY          1158.20         C  8 -- H 19         +12.8% ( 46.8%)      0.5%
 TRANSITION DIPOLE   1.0148         C  9 -- H 20         +12.7% ( 46.7%)      0.1%
 TRAVEL (Ang.)       0.3417         O  5 -- C 11          +9.5% ( 40.4%)     95.2%
 REDUCED MASS        0.4987         C  7 -- H 18          +8.5% ( 38.3%)      0.0%
 EFFECTIVE MASS      5.9480
 FORCE CONSTANT      0.3941

 VIBRATION         38   38A           ATOM PAIR      ENERGY CONTRIBUTION    RADIAL
 FREQUENCY          1170.24         C 10 -- H 21         +25.4% ( 63.0%)      0.4%
 TRANSITION DIPOLE   0.4418         C  7 -- H 18         +13.0% ( 45.2%)      0.4%
 TRAVEL (Ang.)       0.3770         C  9 -- H 20         +12.8% ( 44.7%)      1.8%
 REDUCED MASS        0.4054         O  4 -- C 10          +9.1% ( 37.8%)     98.9%
 EFFECTIVE MASS      4.1528
 FORCE CONSTANT      0.3271

 VIBRATION         39   39A           ATOM PAIR      ENERGY CONTRIBUTION    RADIAL
 FREQUENCY          1177.36         C 10 -- H 21         +15.5% ( 51.8%)      0.3%
 TRANSITION DIPOLE   0.1016         C  8 -- H 19         +13.3% ( 48.1%)      0.0%
 TRAVEL (Ang.)       0.3591         C  7 -- C  8          +8.2% ( 37.7%)     58.3%
 REDUCED MASS        0.4443         O  2 -- C  8          +7.2% ( 35.4%)     96.7%
 EFFECTIVE MASS      5.2748
 FORCE CONSTANT      0.3628

 VIBRATION         40   40A           ATOM PAIR      ENERGY CONTRIBUTION    RADIAL
 FREQUENCY          1195.75         C  8 -- C  9         +16.0% ( 57.2%)     89.6%
 TRANSITION DIPOLE   0.5019         O  2 -- C  8         +11.0% ( 47.3%)     69.0%
 TRAVEL (Ang.)       0.2146         O  3 -- C  9         +10.1% ( 45.5%)     87.9%
 REDUCED MASS        1.2240         C  7 -- H 18         +10.0% ( 45.1%)      0.6%
 EFFECTIVE MASS      8.5735
 FORCE CONSTANT      1.0311

 VIBRATION         41   41A           ATOM PAIR      ENERGY CONTRIBUTION    RADIAL
 FREQUENCY          1200.41         C  7 -- H 18         +14.2% ( 46.5%)      0.1%
 TRANSITION DIPOLE   0.5153         C  8 -- C  9         +10.6% ( 40.3%)     68.7%
 TRAVEL (Ang.)       0.3942         C  9 -- H 20          +9.6% ( 38.2%)     13.6%
 REDUCED MASS        0.3615         C  8 -- H 19          +9.4% ( 37.9%)      2.8%
 EFFECTIVE MASS      5.1103
 FORCE CONSTANT      0.3069

 VIBRATION         42   42A           ATOM PAIR      ENERGY CONTRIBUTION    RADIAL
 FREQUENCY          1207.22         C 11 -- H 22         +16.3% ( 58.2%)      0.1%
 TRANSITION DIPOLE   0.3358         C 10 -- C 11         +11.5% ( 48.9%)     96.2%
 TRAVEL (Ang.)       0.2356         C 11 -- C 12         +10.6% ( 46.8%)     39.3%
 REDUCED MASS        1.0065         O  5 -- C 11         +10.1% ( 45.7%)     53.2%
 EFFECTIVE MASS      7.5400
 FORCE CONSTANT      0.8643

 VIBRATION         43   43A           ATOM PAIR      ENERGY CONTRIBUTION    RADIAL
 FREQUENCY          1223.20         C 10 -- H 21         +16.5% ( 50.6%)      0.3%
 TRANSITION DIPOLE   0.0939         C  9 -- H 20         +15.6% ( 49.3%)      0.5%
 TRAVEL (Ang.)       0.3301         C 11 -- H 22         +14.7% ( 47.8%)      3.6%
 REDUCED MASS        0.5060         C 10 -- C 11         +10.2% ( 39.8%)     48.8%
 EFFECTIVE MASS      4.2066
 FORCE CONSTANT      0.4461

 VIBRATION         44   44A           ATOM PAIR      ENERGY CONTRIBUTION    RADIAL
 FREQUENCY          1236.09         C  8 -- H 19         +21.9% ( 59.7%)      0.1%
 TRANSITION DIPOLE   0.3762         C  9 -- H 20         +14.6% ( 48.8%)      0.1%
 TRAVEL (Ang.)       0.2575         C  7 -- C  8         +10.7% ( 41.8%)     77.5%
 REDUCED MASS        0.8228         O  2 -- C  8         +10.4% ( 41.1%)     55.7%
 EFFECTIVE MASS      4.8117
 FORCE CONSTANT      0.7407

 VIBRATION         45   45A           ATOM PAIR      ENERGY CONTRIBUTION    RADIAL
 FREQUENCY          1242.99         C 10 -- C 11          +9.8% ( 41.8%)     27.5%
 TRANSITION DIPOLE   0.5135         C 11 -- H 22          +9.5% ( 41.3%)      0.9%
 TRAVEL (Ang.)       0.3183         C 10 -- H 21          +9.3% ( 40.9%)      2.3%
 REDUCED MASS        0.5353         C  8 -- H 19          +6.6% ( 34.4%)      1.1%
 EFFECTIVE MASS      6.1572
 FORCE CONSTANT      0.4873

 VIBRATION         46   46A           ATOM PAIR      ENERGY CONTRIBUTION    RADIAL
 FREQUENCY          1255.86         O  1 -- C  7         +17.5% ( 54.2%)     90.5%
 TRANSITION DIPOLE   0.5611         C  7 -- H 18         +15.6% ( 51.2%)      2.2%
 TRAVEL (Ang.)       0.2213         C  7 -- C  8         +14.3% ( 49.1%)     30.7%
 REDUCED MASS        1.0960         O  5 -- C  7         +14.0% ( 48.6%)     30.2%
 EFFECTIVE MASS      6.5821
 FORCE CONSTANT      1.0184

 VIBRATION         47   47A           ATOM PAIR      ENERGY CONTRIBUTION    RADIAL
 FREQUENCY          1258.99         C  9 -- C 10         +11.5% ( 43.7%)     72.2%
 TRANSITION DIPOLE   0.0984         C 10 -- H 21         +10.7% ( 42.1%)      0.5%
 TRAVEL (Ang.)       0.3253         C  9 -- H 20          +9.0% ( 38.7%)      0.6%
 REDUCED MASS        0.5060         C 12 -- H 24          +8.5% ( 37.6%)      0.8%
 EFFECTIVE MASS      5.6385
 FORCE CONSTANT      0.4725

 VIBRATION         48   48A           ATOM PAIR      ENERGY CONTRIBUTION    RADIAL
 FREQUENCY          1266.44         C 11 -- H 22         +13.0% ( 44.5%)      0.6%
 TRANSITION DIPOLE   0.4325         C 12 -- H 23         +10.1% ( 39.2%)      0.2%
 TRAVEL (Ang.)       0.3695         C 10 -- C 11          +8.6% ( 36.2%)     21.8%
 REDUCED MASS        0.3900         C 12 -- H 24          +7.8% ( 34.5%)      2.3%
 EFFECTIVE MASS      4.7798
 FORCE CONSTANT      0.3685

 VIBRATION         49   49A           ATOM PAIR      ENERGY CONTRIBUTION    RADIAL
 FREQUENCY          1280.29         C 12 -- H 23         +24.5% ( 60.9%)      0.0%
 TRANSITION DIPOLE   0.2311         C 12 -- H 24         +15.8% ( 48.9%)      0.6%
 TRAVEL (Ang.)       0.2836         C 11 -- H 22         +14.2% ( 46.3%)      0.2%
 REDUCED MASS        0.6549         C 11 -- C 12         +12.5% ( 43.4%)     20.1%
 EFFECTIVE MASS      4.3940
 FORCE CONSTANT      0.6324

 VIBRATION         50   50A           ATOM PAIR      ENERGY CONTRIBUTION    RADIAL
 FREQUENCY          1336.70         O  6 -- H 17         +53.1% ( 70.6%)     14.0%
 TRANSITION DIPOLE   0.1981         C 12 -- H 24         +25.5% ( 49.0%)     11.9%
 TRAVEL (Ang.)       0.3198         O  6 -- C 12          +6.8% ( 25.2%)      1.9%
 REDUCED MASS        0.4931         C 11 -- C 12          +4.0% ( 19.5%)      0.4%
 EFFECTIVE MASS      2.4079
 FORCE CONSTANT      0.5191

 VIBRATION         51   51A           ATOM PAIR      ENERGY CONTRIBUTION    RADIAL
 FREQUENCY          1345.65         O  3 -- H 15         +23.1% ( 53.2%)     12.0%
 TRANSITION DIPOLE   0.3644         O  2 -- H 14         +19.4% ( 48.7%)     12.7%
 TRAVEL (Ang.)       0.2969         C  9 -- H 20         +13.4% ( 40.5%)      0.4%
 REDUCED MASS        0.5686         C  9 -- C 10         +10.1% ( 35.2%)     45.1%
 EFFECTIVE MASS      3.5650
 FORCE CONSTANT      0.6066

 VIBRATION         52   52A           ATOM PAIR      ENERGY CONTRIBUTION    RADIAL
 FREQUENCY          1366.83         O  1 -- H 13         +55.2% ( 76.1%)     19.1%
 TRANSITION DIPOLE   0.5296         C  7 -- H 18         +14.9% ( 39.6%)     34.1%
 TRAVEL (Ang.)       0.2659         O  1 -- C  7         +10.7% ( 33.6%)     10.2%
 REDUCED MASS        0.6978         C  7 -- C  8          +7.9% ( 28.7%)     56.7%
 EFFECTIVE MASS      3.1884
 FORCE CONSTANT      0.7680

 VIBRATION         53   53A           ATOM PAIR      ENERGY CONTRIBUTION    RADIAL
 FREQUENCY          1371.13         O  4 -- H 16         +32.1% ( 63.0%)     12.2%
 TRANSITION DIPOLE   0.2516         C 10 -- H 21         +11.4% ( 37.6%)      9.4%
 TRAVEL (Ang.)       0.3126         O  2 -- H 14          +9.5% ( 34.3%)     13.6%
 REDUCED MASS        0.5033         C 10 -- C 11          +8.7% ( 32.7%)     95.0%
 EFFECTIVE MASS      3.8476
 FORCE CONSTANT      0.5575

 VIBRATION         54   54A           ATOM PAIR      ENERGY CONTRIBUTION    RADIAL
 FREQUENCY          1382.47         O  2 -- H 14         +18.5% ( 48.1%)     15.1%
 TRANSITION DIPOLE   0.3295         C  8 -- C  9         +12.6% ( 39.7%)     93.7%
 TRAVEL (Ang.)       0.3301         O  4 -- H 16         +12.3% ( 39.3%)     16.3%
 REDUCED MASS        0.4476         O  3 -- H 15         +11.7% ( 38.2%)     15.0%
 EFFECTIVE MASS      4.1205
 FORCE CONSTANT      0.5040

 VIBRATION         55   55A           ATOM PAIR      ENERGY CONTRIBUTION    RADIAL
 FREQUENCY          2493.40         O  2 -- H 14         +89.7% ( 94.9%)     97.7%
 TRANSITION DIPOLE   1.3366         O  4 -- H 16          +5.5% ( 23.5%)     96.1%
 TRAVEL (Ang.)       0.1867         O  3 -- H 15          +4.1% ( 20.2%)     97.8%
 REDUCED MASS        0.7755         O  2 -- C  8          +0.3% (  5.7%)     13.6%
 EFFECTIVE MASS      1.3307
 FORCE CONSTANT      2.8407

 VIBRATION         56   56A           ATOM PAIR      ENERGY CONTRIBUTION    RADIAL
 FREQUENCY          2505.35         O  3 -- H 15         +94.5% ( 97.2%)     98.2%
 TRANSITION DIPOLE   1.2354         O  2 -- H 14          +4.7% ( 21.7%)     97.6%
 TRAVEL (Ang.)       0.1774         O  3 -- C  9          +0.4% (  6.1%)     17.6%
 REDUCED MASS        0.8549         O  4 -- H 16          +0.2% (  4.5%)     99.5%
 EFFECTIVE MASS      1.3394
 FORCE CONSTANT      3.1616

 VIBRATION         57   57A           ATOM PAIR      ENERGY CONTRIBUTION    RADIAL
 FREQUENCY          2519.52         O  1 -- H 13         +83.0% ( 91.2%)     97.3%
 TRANSITION DIPOLE   1.0206         O  4 -- H 16         +15.4% ( 39.3%)     98.1%
 TRAVEL (Ang.)       0.1980         O  2 -- H 14          +0.5% (  7.1%)     95.9%
 REDUCED MASS        0.6824         C  7 -- H 18          +0.3% (  5.7%)     53.0%
 EFFECTIVE MASS      1.3029
 FORCE CONSTANT      2.5524

 VIBRATION         58   58A           ATOM PAIR      ENERGY CONTRIBUTION    RADIAL
 FREQUENCY          2529.05         O  4 -- H 16         +77.8% ( 88.0%)     97.9%
 TRANSITION DIPOLE   1.2664         O  1 -- H 13         +15.3% ( 39.1%)     97.4%
 TRAVEL (Ang.)       0.2107         O  2 -- H 14          +4.1% ( 20.3%)     99.3%
 REDUCED MASS        0.6006         O  6 -- H 17          +1.3% ( 11.2%)     98.4%
 EFFECTIVE MASS      1.3178
 FORCE CONSTANT      2.2632

 VIBRATION         59   59A           ATOM PAIR      ENERGY CONTRIBUTION    RADIAL
 FREQUENCY          2540.14         O  6 -- H 17         +96.6% ( 98.5%)     98.3%
 TRANSITION DIPOLE   1.0948         C 12 -- H 23          +0.8% (  9.1%)     86.4%
 TRAVEL (Ang.)       0.1722         O  4 -- H 16          +0.7% (  8.6%)     97.3%
 REDUCED MASS        0.8952         O  1 -- H 13          +0.7% (  8.4%)     97.2%
 EFFECTIVE MASS      1.3162
 FORCE CONSTANT      3.4031

 VIBRATION         60   60A           ATOM PAIR      ENERGY CONTRIBUTION    RADIAL
 FREQUENCY          2650.55         C 12 -- H 24         +54.9% ( 76.5%)     98.9%
 TRANSITION DIPOLE   0.5931         C 12 -- H 23         +35.3% ( 61.4%)     96.6%
 TRAVEL (Ang.)       0.2378         C 11 -- H 22          +6.7% ( 26.8%)     99.9%
 REDUCED MASS        0.4498         C 11 -- C 12          +1.0% ( 10.5%)      0.8%
 EFFECTIVE MASS      1.4641
 FORCE CONSTANT      1.8620

 VIBRATION         61   61A           ATOM PAIR      ENERGY CONTRIBUTION    RADIAL
 FREQUENCY          2664.67         C  9 -- H 20         +95.4% ( 98.7%)    100.0%
 TRANSITION DIPOLE   0.5744         C 10 -- H 21          +1.2% ( 11.2%)     97.4%
 TRAVEL (Ang.)       0.1688         C  8 -- H 19          +1.0% ( 10.2%)     96.7%
 REDUCED MASS        0.8882         C  9 -- C 10          +0.7% (  8.6%)      4.9%
 EFFECTIVE MASS      1.3391
 FORCE CONSTANT      3.7158

 VIBRATION         62   62A           ATOM PAIR      ENERGY CONTRIBUTION    RADIAL
 FREQUENCY          2675.68         C  8 -- H 19         +76.3% ( 88.3%)    100.0%
 TRANSITION DIPOLE   0.8224         C  7 -- H 18         +19.0% ( 44.1%)     99.9%
 TRAVEL (Ang.)       0.2040         C  7 -- C  8          +0.8% (  8.9%)      0.1%
 REDUCED MASS        0.6053         C  9 -- H 20          +0.7% (  8.7%)     95.7%
 EFFECTIVE MASS      1.3507
 FORCE CONSTANT      2.5532

 VIBRATION         63   63A           ATOM PAIR      ENERGY CONTRIBUTION    RADIAL
 FREQUENCY          2681.57         C 10 -- H 21         +63.9% ( 80.8%)    100.0%
 TRANSITION DIPOLE   0.7233         C  7 -- H 18         +20.0% ( 45.2%)     99.9%
 TRAVEL (Ang.)       0.2369         C 11 -- H 22          +8.7% ( 29.7%)     99.8%
 REDUCED MASS        0.4480         C  8 -- H 19          +3.6% ( 19.1%)     99.8%
 EFFECTIVE MASS      1.3540
 FORCE CONSTANT      1.8981

 VIBRATION         64   64A           ATOM PAIR      ENERGY CONTRIBUTION    RADIAL
 FREQUENCY          2683.05         C  7 -- H 18         +54.4% ( 74.5%)     99.9%
 TRANSITION DIPOLE   0.8523         C 11 -- H 22         +18.6% ( 43.5%)    100.0%
 TRAVEL (Ang.)       0.2687         C  8 -- H 19         +12.1% ( 35.1%)     99.9%
 REDUCED MASS        0.3482         C 10 -- H 21         +10.1% ( 32.1%)     99.9%
 EFFECTIVE MASS      1.3582
 FORCE CONSTANT      1.4767

 VIBRATION         65   65A           ATOM PAIR      ENERGY CONTRIBUTION    RADIAL
 FREQUENCY          2684.89         C 11 -- H 22         +62.2% ( 79.7%)     99.9%
 TRANSITION DIPOLE   0.6715         C 10 -- H 21         +21.5% ( 46.8%)     99.9%
 TRAVEL (Ang.)       0.2419         C  8 -- H 19          +4.3% ( 21.0%)    100.0%
 REDUCED MASS        0.4292         C  7 -- H 18          +3.9% ( 19.9%)     99.9%
 EFFECTIVE MASS      1.3530
 FORCE CONSTANT      1.8230

 VIBRATION         66   66A           ATOM PAIR      ENERGY CONTRIBUTION    RADIAL
 FREQUENCY          2715.50         C 12 -- H 23         +58.8% ( 75.5%)     97.7%
 TRANSITION DIPOLE   0.4714         C 12 -- H 24         +39.7% ( 62.1%)     94.4%
 TRAVEL (Ang.)       0.2245         C 11 -- H 22          +0.5% (  6.9%)     91.2%
 REDUCED MASS        0.4925         O  6 -- C 12          +0.5% (  6.8%)     17.6%
 EFFECTIVE MASS      1.2300
 FORCE CONSTANT      2.1396

           FORCE CONSTANT IN CARTESIAN COORDINATES (Millidynes/A)

    ATOM   CHEMICAL       X               Y               Z
   NUMBER   SYMBOL  FORCE CONSTANT  FORCE CONSTANT  FORCE CONSTANT

      1       O        3.556846        6.753162        1.409676
      2       O        2.179121        5.100209        3.556347
      3       O        0.804328        6.394504        3.517792
      4       O        3.723212        5.601710        1.379269
      5       O        2.481896        4.291972        6.210692
      6       O        2.623334        3.673472        4.489792
      7       C        7.057413        8.025734        5.779444
      8       C        6.978569        7.335302        7.086472
      9       C        6.768230        7.498805        7.293993
     10       C        7.321806        7.327185        6.825272
     11       C        6.991868        7.302177        7.098777
     12       C        6.845589        6.692918        6.826670
     13       H        1.450497        2.847974        0.279065
     14       H        0.913260        1.003092        2.585057
     15       H        0.129589        2.786643        1.557766
     16       H        1.849970        2.519703        0.195732
     17       H        0.443785        0.671246        3.414928
     18       H        1.833985        2.360201        1.323709
     19       H        0.744495        0.857212        3.918038
     20       H        3.833223        0.864848        0.813304
     21       H        1.555699        2.486302        1.495974
     22       H        0.843189        0.902494        3.817866
     23       H        3.642876        0.788140        0.994898
     24       H        0.641792        0.842973        3.949743

 **********************
 *                    *
 * JOB ENDED NORMALLY *
 *                    *
 **********************



 TOTAL JOB TIME:             3.71 SECONDS

 == MOPAC DONE ==
