 *******************************************************************************
 ** Site#: 3934         For non-commercial use only    Version 20.323L 64BITS **
 *******************************************************************************
 ** Cite this program as: MOPAC2016, Version: 20.323L, James J. P. Stewart,   **
 ** Stewart Computational Chemistry, web: HTTP://OpenMOPAC.net. Days left: 350**
 *******************************************************************************
 **                                                                           **
 **                                MOPAC2016                                  **
 **                                                                           **
 *******************************************************************************

                              PM6 CALCULATION RESULTS

 *******************************************************************************
 *  CALCULATION DONE:                                Fri Dec  4 15:53:24 2020  *
 *  PM6        - The PM6 Hamiltonian to be used
 *  START_RES  - STARTING RESIDUE NUMBERS DEFINED
 *  Keyword:   START_RES=(1A) 
 *  CHAINS     - PDB CHAIN LETTERS EXPLICITLY DEFINED
 *  Keyword:   CHAINS=(A) 
 *  PDB        - INPUT GEOMETRY IS IN PDB FORMAT
 *  EPS= 78.40 - USE ANDREAS KLAMT'S COSMO IMPLICIT SOLVATION MODEL
 *  T=         - A TIME OF 172800.0 SECONDS REQUESTED
 *  DUMP=N     - RESTART FILE WRITTEN EVERY 7200.0 SECONDS REQUESTED
 *  PKA        - PRINT pKa FOR MOST ACIDIC HYDROGEN
 *******************************************************************************
 START_RES=(1A)  CHAINS=(A) pm6 pdb pka


   ATOM                 CHEMICAL                   X               Y               Z
  NUMBER                 SYMBOL               (ANGSTROMS)     (ANGSTROMS)     (ANGSTROMS)
 
     1       O(HETATM    1  O1  GLC A   1)   -0.22100000  *  -0.26100000  *  -0.05700000  *
     2       O(HETATM    2  O2  GLC A   1)    2.36200000  *  -0.26100000  *  -0.05700000  *
     3       O(HETATM    3  O3  GLC A   1)    2.33200000  *   3.34200000  *  -0.05700000  *
     4       O(HETATM    4  O4  GLC A   1)    2.86800000  *   0.84700000  *   2.59000000  *
     5       O(HETATM    5  O5  GLC A   1)    0.16800000  *   1.06300000  *   1.68900000  *
     6       O(HETATM    6  O6  GLC A   1)    1.04900000  *   4.55200000  *   2.45100000  *
     7       C(HETATM    7  C1  GLC A   1)    0.32700000  *   0.98600000  *   0.23500000  *
     8       C(HETATM    8  C2  GLC A   1)    1.81400000  *   1.05200000  *  -0.20900000  *
     9       C(HETATM    9  C3  GLC A   1)    2.65200000  *   2.09200000  *   0.55900000  *
    10       C(HETATM   10  C4  GLC A   1)    2.33600000  *   2.07500000  *   2.07400000  *
    11       C(HETATM   11  C5  GLC A   1)    0.82200000  *   2.14100000  *   2.35900000  *
    12       C(HETATM   12  C6  GLC A   1)    0.20500000  *   3.49800000  *   1.97300000  *
    13       H(HETATM   13 1H1  GLC A   1)    0.43000000  *  -0.99500000  *   0.14400000  *
    14       H(HETATM   14 1H2  GLC A   1)    2.81100000  *  -0.35300000  *   0.82600000  *
    15       H(HETATM   15 1H3  GLC A   1)    2.41700000  *   4.09100000  *   0.58500000  *
    16       H(HETATM   16 1H4  GLC A   1)    2.14900000  *   0.16500000  *   2.65300000  *
    17       H(HETATM   17  H6  GLC A   1)    0.90200000  *   4.70800000  *   3.40700000  *
    18       H(HETATM   18 2H1  GLC A   1)   -0.33700000  *   1.73900000  *  -0.23000000  *
    19       H(HETATM   19 2H2  GLC A   1)    1.86800000  *   1.23700000  *  -1.31200000  *
    20       H(HETATM   20 2H3  GLC A   1)    3.74200000  *   1.90500000  *   0.39300000  *
    21       H(HETATM   21 2H4  GLC A   1)    2.89600000  *   2.87400000  *   2.61300000  *
    22       H(HETATM   22  H5  GLC A   1)    0.61700000  *   1.89500000  *   3.43100000  *
    23       H(HETATM   23 1H6  GLC A   1)   -0.82200000  *   3.60500000  *   2.36000000  *
    24       H(HETATM   24 2H6  GLC A   1)    0.19900000  *   3.65800000  *   0.87300000  *
 

 General Reference for PM6:
 "Optimization of Parameters for Semiempirical Methods V: Modification of NDDO Approximations
 and Application to 70 Elements", J. J. P. Stewart, J. Mol. Mod., 13, 1173-1213 (2007)
 URL: https://link.springer.com/article/10.1007/s00894-007-0233-4

           Empirical Formula: C6 H12 O6  =    24 atoms



      MOLECULAR POINT GROUP   :   C1  


      RHF CALCULATION, NO. OF DOUBLY OCCUPIED LEVELS = 36


          Geometry optimization using EF

          DIAGONAL MATRIX USED AS START HESSIAN

 CYCLE:     1 TIME:   0.023 TIME LEFT:  2.00D  GRAD.:     2.227 HEAT: -274.8896
 CYCLE:     2 TIME:   0.020 TIME LEFT:  2.00D  GRAD.:     2.786 HEAT: -274.8898
 CYCLE:     3 TIME:   0.016 TIME LEFT:  2.00D  GRAD.:     2.755 HEAT: -274.8904
 CYCLE:     4 TIME:   0.012 TIME LEFT:  2.00D  GRAD.:     4.116 HEAT: -274.8875
 CYCLE:     5 TIME:   0.008 TIME LEFT:  2.00D  GRAD.:     2.216 HEAT: -274.8922
 CYCLE:     6 TIME:   0.023 TIME LEFT:  2.00D  GRAD.:     2.275 HEAT: -274.8923
 CYCLE:     7 TIME:   0.012 TIME LEFT:  2.00D  GRAD.:     1.388 HEAT: -274.8938
 CYCLE:     8 TIME:   0.012 TIME LEFT:  2.00D  GRAD.:     3.030 HEAT: -274.8918
 CYCLE:     9 TIME:   0.012 TIME LEFT:  2.00D  GRAD.:     1.841 HEAT: -274.8940
 CYCLE:    10 TIME:   0.012 TIME LEFT:  2.00D  GRAD.:     4.148 HEAT: -274.8894
 CYCLE:    11 TIME:   0.008 TIME LEFT:  2.00D  GRAD.:     0.878 HEAT: -274.8953

     GRADIENT =  0.87797 IS LESS THAN CUTOFF =  1.00000



 -------------------------------------------------------------------------------
 START_RES=(1A)  CHAINS=(A) pm6 pdb pka




     GEOMETRY OPTIMISED USING EIGENVECTOR FOLLOWING (EF).     
     SCF FIELD WAS ACHIEVED                                   


                              PM6 CALCULATION
                                                       MOPAC2016 (Version: 20.323L)
                                                       Fri Dec  4 15:53:24 2020
                                                       No. of days remaining = 350




          FINAL HEAT OF FORMATION =       -274.89533 KCAL/MOL =   -1150.16207 KJ/MOL


          TOTAL ENERGY            =      -2647.92852 EV
          ELECTRONIC ENERGY       =     -14295.76602 EV  POINT GROUP:     C1  
          CORE-CORE REPULSION     =      11647.83750 EV
          COSMO AREA              =        178.40 SQUARE ANGSTROMS
          COSMO VOLUME            =        193.33 CUBIC ANGSTROMS

                          pKa for hydroxyl hydrogens

                      Sorted by pKa       Sorted by atom
                      Atom      pKa       Atom      pKa
                        13      7.707       13      7.707
                        15     11.833       14     12.490
                        16     11.923       15     11.833
                        14     12.490       16     11.923
                        17     13.119       17     13.119
 

          GRADIENT NORM           =          0.87797 = 0.17921 PER ATOM
          IONIZATION POTENTIAL    =         10.419647 EV
          HOMO LUMO ENERGIES (EV) =        -10.420  0.772
          NO. OF FILLED LEVELS    =         36
          MOLECULAR WEIGHT        =        180.1572

          MOLECULAR DIMENSIONS (Angstroms)

            Atom       Atom       Distance
            H    17    H    13     6.58871
            H    23    H    20     4.80567
            H    19    H    16     3.94435


          SCF CALCULATIONS        =         16
 
          WALL-CLOCK TIME         =          0.258 SECONDS
          COMPUTATION TIME        =          4.240 SECONDS




   ATOM                 CHEMICAL                   X               Y               Z
  NUMBER                 SYMBOL               (ANGSTROMS)     (ANGSTROMS)     (ANGSTROMS)
 
     1       O(HETATM    1  O1  GLC A   1)   -0.22334902  *  -0.25990008  *  -0.05944626  *
     2       O(HETATM    2  O2  GLC A   1)    2.36272972  *  -0.26089398  *  -0.05622062  *
     3       O(HETATM    3  O3  GLC A   1)    2.33094539  *   3.34168132  *  -0.05770598  *
     4       O(HETATM    4  O4  GLC A   1)    2.86845408  *   0.84828567  *   2.59399734  *
     5       O(HETATM    5  O5  GLC A   1)    0.17099613  *   1.06132555  *   1.68936836  *
     6       O(HETATM    6  O6  GLC A   1)    1.04799274  *   4.55257684  *   2.45271675  *
     7       C(HETATM    7  C1  GLC A   1)    0.32691990  *   0.98579367  *   0.23496984  *
     8       C(HETATM    8  C2  GLC A   1)    1.81377489  *   1.05085491  *  -0.20936291  *
     9       C(HETATM    9  C3  GLC A   1)    2.65171392  *   2.09091072  *   0.55782385  *
    10       C(HETATM   10  C4  GLC A   1)    2.33638152  *   2.07512082  *   2.07286566  *
    11       C(HETATM   11  C5  GLC A   1)    0.82230686  *   2.14124510  *   2.35884323  *
    12       C(HETATM   12  C6  GLC A   1)    0.20532300  *   3.49839888  *   1.97293106  *
    13       H(HETATM   13 1H1  GLC A   1)    0.42847181  *  -0.99399584  *   0.14111857  *
    14       H(HETATM   14 1H2  GLC A   1)    2.81075540  *  -0.35361753  *   0.82644631  *
    15       H(HETATM   15 1H3  GLC A   1)    2.41744918  *   4.09037388  *   0.58388906  *
    16       H(HETATM   16 1H4  GLC A   1)    2.14955493  *   0.16552359  *   2.65248781  *
    17       H(HETATM   17  H6  GLC A   1)    0.90230029  *   4.70787057  *   3.40843013  *
    18       H(HETATM   18 2H1  GLC A   1)   -0.33701691  *   1.73997460  *  -0.22860624  *
    19       H(HETATM   19 2H2  GLC A   1)    1.86756820  *   1.23546204  *  -1.31194210  *
    20       H(HETATM   20 2H3  GLC A   1)    3.74145756  *   1.90521886  *   0.39235343  *
    21       H(HETATM   21 2H4  GLC A   1)    2.89607476  *   2.87489056  *   2.61200242  *
    22       H(HETATM   22  H5  GLC A   1)    0.61675495  *   1.89507514  *   3.43014795  *
    23       H(HETATM   23 1H6  GLC A   1)   -0.82189496  *   3.60474495  *   2.35870595  *
    24       H(HETATM   24 2H6  GLC A   1)    0.19999482  *   3.65898019  *   0.87329894  *

                             CARTESIAN COORDINATES

   1    O       -0.223349015    -0.259900084    -0.059446261
   2    O        2.362729720    -0.260893975    -0.056220620
   3    O        2.330945386     3.341681317    -0.057705977
   4    O        2.868454077     0.848285670     2.593997338
   5    O        0.170996130     1.061325546     1.689368358
   6    O        1.047992740     4.552576842     2.452716748
   7    C        0.326919897     0.985793674     0.234969841
   8    C        1.813774889     1.050854910    -0.209362910
   9    C        2.651713917     2.090910724     0.557823847
  10    C        2.336381522     2.075120823     2.072865663
  11    C        0.822306860     2.141245099     2.358843235
  12    C        0.205322999     3.498398878     1.972931064
  13    H        0.428471808    -0.993995845     0.141118573
  14    H        2.810755397    -0.353617526     0.826446308
  15    H        2.417449181     4.090373881     0.583889062
  16    H        2.149554928     0.165523595     2.652487815
  17    H        0.902300288     4.707870569     3.408430131
  18    H       -0.337016908     1.739974601    -0.228606239
  19    H        1.867568205     1.235462045    -1.311942101
  20    H        3.741457561     1.905218857     0.392353426
  21    H        2.896074763     2.874890564     2.612002422
  22    H        0.616754955     1.895075139     3.430147951
  23    H       -0.821894955     3.604744954     2.358705947
  24    H        0.199994819     3.658980188     0.873298937


           Empirical Formula: C6 H12 O6  =    24 atoms



      MOLECULAR POINT GROUP   :   C1  


                  EIGENVALUES  
 -32.11093 -31.12738 -30.62003 -30.27590 -30.04485 -29.49368 -27.05091 -26.87418
 -25.24349 -23.72566 -23.16701 -21.18138 -19.86293 -18.79376 -18.53928 -18.33217
 -17.57606 -17.17861 -17.08657 -16.43689 -15.97128 -15.52331 -14.95535 -14.85722
 -14.38513 -13.91345 -13.54837 -13.25381 -13.16040 -12.59112 -12.21998 -11.82175
 -11.42969 -11.25419 -10.93838 -10.41965   0.77189   1.13850   1.69426   1.84727
   2.04381   2.30107   2.36129   2.48313   2.65320   2.82711   2.83754   3.48759
   4.19213   4.28305   4.43785   4.60159   4.68382   4.79108   4.84426   4.87734
   5.03478   5.22049   5.29766   5.42763


              NET ATOMIC CHARGES AND DIPOLE CONTRIBUTIONS

  ATOM NO.                 TYPE                        CHARGE      No. of ELECS.   s-Pop       p-Pop       
    1          O(HETATM    1  O1  GLC A   1)          -0.496258        6.4963     1.81897     4.67728
    2          O(HETATM    2  O2  GLC A   1)          -0.538828        6.5388     1.82539     4.71344
    3          O(HETATM    3  O3  GLC A   1)          -0.554413        6.5544     1.82111     4.73330
    4          O(HETATM    4  O4  GLC A   1)          -0.544362        6.5444     1.82783     4.71653
    5          O(HETATM    5  O5  GLC A   1)          -0.511337        6.5113     1.85994     4.65140
    6          O(HETATM    6  O6  GLC A   1)          -0.547555        6.5476     1.81828     4.72927
    7          C(HETATM    7  C1  GLC A   1)           0.331170        3.6688     1.12299     2.54584
    8          C(HETATM    8  C2  GLC A   1)           0.006554        3.9934     1.13039     2.86306
    9          C(HETATM    9  C3  GLC A   1)           0.063527        3.9365     1.12192     2.81455
   10          C(HETATM   10  C4  GLC A   1)           0.032901        3.9671     1.12600     2.84110
   11          C(HETATM   11  C5  GLC A   1)           0.055791        3.9442     1.12182     2.82239
   12          C(HETATM   12  C6  GLC A   1)          -0.073183        4.0732     1.11287     2.96031
   13          H(HETATM   13 1H1  GLC A   1)           0.339500        0.6605     0.66050
   14          H(HETATM   14 1H2  GLC A   1)           0.326663        0.6733     0.67334
   15          H(HETATM   15 1H3  GLC A   1)           0.337710        0.6623     0.66229
   16          H(HETATM   16 1H4  GLC A   1)           0.325781        0.6742     0.67422
   17          H(HETATM   17  H6  GLC A   1)           0.315537        0.6845     0.68446
   18          H(HETATM   18 2H1  GLC A   1)           0.146105        0.8539     0.85389
   19          H(HETATM   19 2H2  GLC A   1)           0.184838        0.8152     0.81516
   20          H(HETATM   20 2H3  GLC A   1)           0.157060        0.8429     0.84294
   21          H(HETATM   21 2H4  GLC A   1)           0.167753        0.8322     0.83225
   22          H(HETATM   22  H5  GLC A   1)           0.158829        0.8412     0.84117
   23          H(HETATM   23 1H6  GLC A   1)           0.140978        0.8590     0.85902
   24          H(HETATM   24 2H6  GLC A   1)           0.175238        0.8248     0.82476

          NET CHARGE ON RESIDUES

      Residue         Charge  Anion or
                              Cation?
      GLC A   1       +0.000
 


 DIPOLE           X         Y         Z       TOTAL
 POINT-CHG.    -0.141     2.401     1.677     2.932
 HYBRID         0.185    -0.578     1.084     1.242
 SUM            0.044     1.823     2.761     3.308


          ATOMIC ORBITAL ELECTRON POPULATIONS

                   Atom                  s        px        py        pz   
   O(HETATM    1  O1  GLC A   1)   1.81897   1.54721   1.28140   1.84867
   O(HETATM    2  O2  GLC A   1)   1.82539   1.78685   1.40020   1.52638
   O(HETATM    3  O3  GLC A   1)   1.82111   1.93640   1.28082   1.51608
   O(HETATM    4  O4  GLC A   1)   1.82783   1.50008   1.33951   1.87694
   O(HETATM    5  O5  GLC A   1)   1.85994   1.76321   1.54339   1.34480
   O(HETATM    6  O6  GLC A   1)   1.81828   1.70578   1.60859   1.41490
   C(HETATM    7  C1  GLC A   1)   1.12299   0.94171   0.84956   0.75457
   C(HETATM    8  C2  GLC A   1)   1.13039   0.95814   0.79959   1.10532
   C(HETATM    9  C3  GLC A   1)   1.12192   1.07070   0.81484   0.92901
   C(HETATM   10  C4  GLC A   1)   1.12600   0.98737   0.87883   0.97490
   C(HETATM   11  C5  GLC A   1)   1.12182   0.92589   0.87661   1.01989
   C(HETATM   12  C6  GLC A   1)   1.11287   0.99373   0.85705   1.10953
   H(HETATM   13 1H1  GLC A   1)   0.66050
   H(HETATM   14 1H2  GLC A   1)   0.67334
   H(HETATM   15 1H3  GLC A   1)   0.66229
   H(HETATM   16 1H4  GLC A   1)   0.67422
   H(HETATM   17  H6  GLC A   1)   0.68446
   H(HETATM   18 2H1  GLC A   1)   0.85389
   H(HETATM   19 2H2  GLC A   1)   0.81516
   H(HETATM   20 2H3  GLC A   1)   0.84294
   H(HETATM   21 2H4  GLC A   1)   0.83225
   H(HETATM   22  H5  GLC A   1)   0.84117
   H(HETATM   23 1H6  GLC A   1)   0.85902
   H(HETATM   24 2H6  GLC A   1)   0.82476

 **********************
 *                    *
 * JOB ENDED NORMALLY *
 *                    *
 **********************



 TOTAL JOB TIME:             0.26 SECONDS

 == MOPAC DONE ==
