 *******************************************************************************
 ** Site#: 3934         For non-commercial use only    Version 20.323L 64BITS **
 *******************************************************************************
 ** Cite this program as: MOPAC2016, Version: 20.323L, James J. P. Stewart,   **
 ** Stewart Computational Chemistry, web: HTTP://OpenMOPAC.net. Days left: 353**
 *******************************************************************************
 **                                                                           **
 **                                MOPAC2016                                  **
 **                                                                           **
 *******************************************************************************

                              PM6 CALCULATION RESULTS

 *******************************************************************************
 *  CALCULATION DONE:                                Tue Dec  1 15:34:46 2020  *
 *  PM6        - The PM6 Hamiltonian to be used
 *  EPS= 78.40 - USE ANDREAS KLAMT'S COSMO IMPLICIT SOLVATION MODEL
 *  T=         - A TIME OF 172800.0 SECONDS REQUESTED
 *  DUMP=N     - RESTART FILE WRITTEN EVERY 7200.0 SECONDS REQUESTED
 *  PKA        - PRINT pKa FOR MOST ACIDIC HYDROGEN
 *******************************************************************************
pm6 pka
 pka galactose

  ATOM    CHEMICAL      BOND LENGTH      BOND ANGLE     TWIST ANGLE 
 NUMBER    SYMBOL       (ANGSTROMS)      (DEGREES)       (DEGREES) 
   (I)                     NA:I           NB:NA:I       NC:NB:NA:I       NA    NB    NC 
     1       O          0.00000000  *    0.0000000  *    0.0000000  *     0     0     0
     2       C          1.40597000  *    0.0000000  *    0.0000000  *     1     0     0
     3       C          1.53459900  *  112.3674880  *    0.0000000  *     2     1     0
     4       C          1.55730300  *  117.0118720  *   48.9058970  *     3     2     1
     5       C          1.55816700  *  113.6586170  *  174.6372050  *     4     3     2
     6       C          1.55278300  *  117.1669180  *  -96.1823620  *     5     4     3
     7       C          1.52319400  *  112.3589650  *   69.5587810  *     6     5     4
     8       O          1.22806900  *  123.4936240  *   71.2500880  *     7     6     5
     9       O          1.43191700  *  113.0830320  *  -54.5110180  *     6     5     4
    10       O          1.42975200  *  111.6577870  *   34.4242650  *     5     4     3
    11       O          1.43865400  *  114.2079620  *   50.0509480  *     4     3     2
    12       O          1.42882800  *  108.3402650  *  175.1122810  *     3     2     1
    13       H          0.97585600  *  107.0848030  *  164.3838410  *     1     2     3
    14       H          1.09441600  *  109.3320620  * -120.6015550  *     2     1     3
    15       H          1.10178800  *  109.0759670  *  123.2547710  *     2     1     3
    16       H          1.09885600  *  107.0410660  *  -70.4876530  *     3     2     1
    17       H          1.09205700  *  106.3131670  *  -67.4312900  *     4     3     2
    18       H          1.09941100  *  105.2114180  *  148.5785270  *     5     4     3
    19       H          1.08480000  *  109.5155450  * -173.7416640  *     6     5     4
    20       H          1.10483000  *  116.0507060  * -103.8959850  *     7     6     5
    21       H          0.98221100  *  107.0123140  *   30.8438820  *     9     6     5
    22       H          0.98118500  *  107.3442870  *  -75.4249490  *    10     5     4
    23       H          0.97076700  *  109.5438790  *   -3.6810890  *    11     4     3
    24       H          0.97189700  *  109.8890420  *  -40.6081790  *    12     3     2
 


          CARTESIAN COORDINATES 

    NO.       ATOM           X           Y           Z

     1         O          0.0000      0.0000      0.0000
     2         C          1.4060      0.0000      0.0000
     3         C          1.9900      1.4191      0.0000
     4         C          1.4158      2.4203      1.0456
     5         C          2.1522      3.7932      1.0667
     6         C          3.2707      3.9816      2.1273
     7         C          4.4990      3.1308      1.8314
     8         O          5.2736      3.3577      0.9058
     9         O          2.8279      3.7173      3.4631
    10         O          2.5918      4.1764     -0.2387
    11         O          1.3811      1.9126      2.3913
    12         O          3.4107      1.3207      0.1156
    13         H         -0.2867     -0.8984     -0.2511
    14         H          1.7683     -0.5257     -0.8889
    15         H          1.7661     -0.5710      0.8708
    16         H          1.7880      1.8505     -0.9903
    17         H          0.3807      2.6093      0.7531
    18         H          1.3847      4.5279      1.3493
    19         H          3.6208      5.0081      2.1063
    20         H          4.6239      2.2262      2.4533
    21         H          2.1267      3.0322      3.4032
    22         H          3.3788      3.6315     -0.4540
    23         H          1.6784      0.9885      2.3975
    24         H          3.6431      0.6254      0.7536

 General Reference for PM6:
 "Optimization of Parameters for Semiempirical Methods V: Modification of NDDO Approximations
 and Application to 70 Elements", J. J. P. Stewart, J. Mol. Mod., 13, 1173-1213 (2007)
 URL: https://link.springer.com/article/10.1007/s00894-007-0233-4

           Empirical Formula: C6 H12 O6  =    24 atoms



      MOLECULAR POINT GROUP   :   C1  


      RHF CALCULATION, NO. OF DOUBLY OCCUPIED LEVELS = 36


          Geometry optimization using EF

          DIAGONAL MATRIX USED AS START HESSIAN

 CYCLE:     1 TIME:   0.020 TIME LEFT:  2.00D  GRAD.:    80.312 HEAT: -245.5690
 CYCLE:     2 TIME:   0.016 TIME LEFT:  2.00D  GRAD.:    51.284 HEAT: -250.1526
 CYCLE:     3 TIME:   0.012 TIME LEFT:  2.00D  GRAD.:    29.534 HEAT: -252.1698
 CYCLE:     4 TIME:   0.012 TIME LEFT:  2.00D  GRAD.:    18.928 HEAT: -253.0213
 CYCLE:     5 TIME:   0.012 TIME LEFT:  2.00D  GRAD.:    18.898 HEAT: -253.3993
 CYCLE:     6 TIME:   0.031 TIME LEFT:  2.00D  GRAD.:    15.015 HEAT: -253.6716
 CYCLE:     7 TIME:   0.012 TIME LEFT:  2.00D  GRAD.:    14.515 HEAT: -254.0151
 CYCLE:     8 TIME:   0.012 TIME LEFT:  2.00D  GRAD.:    12.693 HEAT: -254.2063
 CYCLE:     9 TIME:   0.012 TIME LEFT:  2.00D  GRAD.:    16.783 HEAT: -254.4870
 CYCLE:    10 TIME:   0.012 TIME LEFT:  2.00D  GRAD.:     9.956 HEAT: -254.7482
 CYCLE:    11 TIME:   0.008 TIME LEFT:  2.00D  GRAD.:     7.512 HEAT: -254.9483
 CYCLE:    12 TIME:   0.012 TIME LEFT:  2.00D  GRAD.:     9.148 HEAT: -255.0966
 CYCLE:    13 TIME:   0.012 TIME LEFT:  2.00D  GRAD.:     8.585 HEAT: -255.2048
 CYCLE:    14 TIME:   0.008 TIME LEFT:  2.00D  GRAD.:    13.597 HEAT: -255.4373
 CYCLE:    15 TIME:   0.012 TIME LEFT:  2.00D  GRAD.:    11.754 HEAT: -255.5723
 CYCLE:    16 TIME:   0.012 TIME LEFT:  2.00D  GRAD.:     9.214 HEAT: -256.0743
 CYCLE:    17 TIME:   0.012 TIME LEFT:  2.00D  GRAD.:    14.686 HEAT: -256.9623
 CYCLE:    18 TIME:   0.008 TIME LEFT:  2.00D  GRAD.:    18.086 HEAT: -258.5463
 CYCLE:    19 TIME:   0.012 TIME LEFT:  2.00D  GRAD.:    21.333 HEAT: -259.6664
 CYCLE:    20 TIME:   0.012 TIME LEFT:  2.00D  GRAD.:    21.856 HEAT: -260.6465
 CYCLE:    21 TIME:   0.012 TIME LEFT:  2.00D  GRAD.:    19.353 HEAT: -261.3747
 CYCLE:    22 TIME:   0.008 TIME LEFT:  2.00D  GRAD.:    16.858 HEAT: -262.2147
 CYCLE:    23 TIME:   0.012 TIME LEFT:  2.00D  GRAD.:    12.584 HEAT: -262.5483
 CYCLE:    24 TIME:   0.012 TIME LEFT:  2.00D  GRAD.:    11.647 HEAT: -263.0049
 CYCLE:    25 TIME:   0.008 TIME LEFT:  2.00D  GRAD.:    10.552 HEAT: -263.2583
 CYCLE:    26 TIME:   0.012 TIME LEFT:  2.00D  GRAD.:    11.100 HEAT: -263.7638
 CYCLE:    27 TIME:   0.012 TIME LEFT:  2.00D  GRAD.:     9.556 HEAT: -263.9664
 CYCLE:    28 TIME:   0.008 TIME LEFT:  2.00D  GRAD.:     7.560 HEAT: -264.2037
 CYCLE:    29 TIME:   0.012 TIME LEFT:  2.00D  GRAD.:     6.642 HEAT: -264.2793
 CYCLE:    30 TIME:   0.012 TIME LEFT:  2.00D  GRAD.:     8.599 HEAT: -264.3335
 CYCLE:    31 TIME:   0.008 TIME LEFT:  2.00D  GRAD.:     6.268 HEAT: -264.4368
 CYCLE:    32 TIME:   0.012 TIME LEFT:  2.00D  GRAD.:     4.310 HEAT: -264.4954
 CYCLE:    33 TIME:   0.012 TIME LEFT:  2.00D  GRAD.:     6.703 HEAT: -264.5963
 CYCLE:    34 TIME:   0.008 TIME LEFT:  2.00D  GRAD.:     5.995 HEAT: -264.6551
 CYCLE:    35 TIME:   0.012 TIME LEFT:  2.00D  GRAD.:     6.914 HEAT: -264.6779
 CYCLE:    36 TIME:   0.012 TIME LEFT:  2.00D  GRAD.:     4.846 HEAT: -264.7419
 CYCLE:    37 TIME:   0.008 TIME LEFT:  2.00D  GRAD.:     3.817 HEAT: -264.7706
 CYCLE:    38 TIME:   0.020 TIME LEFT:  2.00D  GRAD.:     2.964 HEAT: -264.7891
 CYCLE:    39 TIME:   0.012 TIME LEFT:  2.00D  GRAD.:     2.290 HEAT: -264.8034
 CYCLE:    40 TIME:   0.012 TIME LEFT:  2.00D  GRAD.:     1.827 HEAT: -264.8145
 CYCLE:    41 TIME:   0.008 TIME LEFT:  2.00D  GRAD.:     1.244 HEAT: -264.8188
 CYCLE:    42 TIME:   0.012 TIME LEFT:  2.00D  GRAD.:     1.547 HEAT: -264.8251
 CYCLE:    43 TIME:   0.012 TIME LEFT:  2.00D  GRAD.:     1.030 HEAT: -264.8275
 CYCLE:    44 TIME:   0.008 TIME LEFT:  2.00D  GRAD.:     0.698 HEAT: -264.8314

     GRADIENT =  0.69826 IS LESS THAN CUTOFF =  1.00000



 -------------------------------------------------------------------------------
 pm6 pka
 pka galactose



     GEOMETRY OPTIMISED USING EIGENVECTOR FOLLOWING (EF).     
     SCF FIELD WAS ACHIEVED                                   


                              PM6 CALCULATION
                                                       MOPAC2016 (Version: 20.323L)
                                                       Tue Dec  1 15:34:47 2020
                                                       No. of days remaining = 353




          FINAL HEAT OF FORMATION =       -264.83144 KCAL/MOL =   -1108.05473 KJ/MOL


          TOTAL ENERGY            =      -2647.49211 EV
          ELECTRONIC ENERGY       =     -14035.85965 EV  POINT GROUP:     C1  
          CORE-CORE REPULSION     =      11388.36754 EV
          COSMO AREA              =        185.22 SQUARE ANGSTROMS
          COSMO VOLUME            =        200.29 CUBIC ANGSTROMS

                          pKa for hydroxyl hydrogens

                      Sorted by pKa       Sorted by atom
                      Atom      pKa       Atom      pKa
                        24     10.682       13     14.007
                        21     10.891       21     10.891
                        23     11.244       22     11.357
                        22     11.357       23     11.244
                        13     14.007       24     10.682
 

          GRADIENT NORM           =          0.69826 = 0.14253 PER ATOM
          IONIZATION POTENTIAL    =         10.143611 EV
          HOMO LUMO ENERGIES (EV) =        -10.144 -0.059
          NO. OF FILLED LEVELS    =         36
          MOLECULAR WEIGHT        =        180.1572

          MOLECULAR DIMENSIONS (Angstroms)

            Atom       Atom       Distance
            H    19    H    14     6.38322
            H    23    O     8     5.08629
            H    13    H    20     4.20966


          SCF CALCULATIONS        =         48
 
          WALL-CLOCK TIME         =          0.609 SECONDS
          COMPUTATION TIME        =         11.304 SECONDS




  ATOM    CHEMICAL      BOND LENGTH      BOND ANGLE     TWIST ANGLE 
 NUMBER    SYMBOL       (ANGSTROMS)      (DEGREES)       (DEGREES) 
   (I)                     NA:I           NB:NA:I       NC:NB:NA:I       NA    NB    NC 
     1       O         -0.03015995  *   -0.0211773  *    0.3737114  *     0     0     0
     2       C          1.42948007  *   20.6611598  *  -19.3297971  *     1     0     0
     3       C          1.54327180  *  110.1495562  *  -22.6620191  *     2     1     0
     4       C          1.54372047  *  111.4985157  *   47.9489850  *     3     2     1
     5       C          1.55054646  *  115.9597025  * -162.0967676  *     4     3     2
     6       C          1.54568195  *  116.2902064  *  -57.9337039  *     5     4     3
     7       C          1.53607769  *  113.3506758  *   60.3474459  *     6     5     4
     8       O          1.21491349  *  119.3872396  *   50.2055929  *     7     6     5
     9       O          1.41745353  *  112.6401527  *  -65.2718999  *     6     5     4
    10       O          1.42114432  *  107.9582855  *   67.0507666  *     5     4     3
    11       O          1.44425697  *  105.3748936  *   81.0851462  *     4     3     2
    12       O          1.42983146  *  108.3688104  *  168.8799672  *     3     2     1
    13       H          0.98101965  *  110.7035320  *   73.6386455  *     1     2     3
    14       H          1.10381564  *  110.8359469  * -123.6182479  *     2     1     3
    15       H          1.10679761  *  103.4427264  *  119.7224681  *     2     1     3
    16       H          1.11679592  *  111.6446809  *  -77.8101230  *     3     2     1
    17       H          1.11786045  *  109.8169742  *  -38.0671625  *     4     3     2
    18       H          1.12032024  *  108.4773917  *  178.8802765  *     5     4     3
    19       H          1.12428867  *  109.1010197  * -178.9574619  *     6     5     4
    20       H          1.09730161  *  116.4368166  * -131.8909580  *     7     6     5
    21       H          0.99487765  *  110.9796963  *   42.1212490  *     9     6     5
    22       H          1.00244196  *  111.1721524  *  -86.2505043  *    10     5     4
    23       H          0.97852533  *  110.8156931  * -111.4971406  *    11     4     3
    24       H          0.99434126  *  109.7905031  *  -74.7733689  *    12     3     2

                             CARTESIAN COORDINATES

   1    O       -0.030159947    -0.021177274     0.373711374
   2    C        1.399320126    -0.021177274     0.373711374
   3    C        1.930933751     1.427641139     0.373711374
   4    C        1.222659181     2.290148312     1.440248475
   5    C        1.343379812     3.825575649     1.261129143
   6    C        2.777923569     4.399990994     1.225577487
   7    C        3.629843898     3.839609734     0.076778432
   8    O        3.184139816     3.844779307    -1.053414441
   9    O        3.461006144     4.238524283     2.457040520
  10    O        0.629820061     4.187136780     0.086498474
  11    O        1.887112282     1.981943972     2.684993575
  12    O        3.336157087     1.391985370     0.635425058
  13    H       -0.376982287     0.237324499    -0.506794538
  14    H        1.791940059    -0.592345725    -0.485372536
  15    H        1.656620968    -0.554892504     1.308561780
  16    H        1.867060459     1.889862820    -0.640933610
  17    H        0.140592793     2.014550076     1.493068192
  18    H        0.771341726     4.325187565     2.084705364
  19    H        2.724162333     5.517185614     1.111512012
  20    H        4.635021279     3.487460403     0.340748312
  21    H        3.294472640     3.335992908     2.841078612
  22    H        1.206819807     4.100681892    -0.728662082
  23    H        1.290056403     1.492074126     3.285879279
  24    H        3.494572097     1.198459083     1.597800663


           Empirical Formula: C6 H12 O6  =    24 atoms



      MOLECULAR POINT GROUP   :   C1  


                  EIGENVALUES  
 -32.39270 -31.62492 -30.63054 -30.36843 -30.10653 -30.01435 -27.08274 -26.33721
 -25.28142 -23.50613 -22.15714 -21.23796 -19.94159 -18.86843 -18.43401 -18.36286
 -17.38354 -16.98513 -16.51181 -15.95250 -15.68203 -15.43049 -15.09636 -14.84055
 -14.59050 -14.07534 -13.80398 -13.39623 -12.81296 -12.49456 -12.13054 -12.04317
 -11.85189 -11.10896 -10.64427 -10.14361  -0.05887   0.92091   1.50687   1.93694
   2.26367   2.38069   2.50155   2.54049   2.67846   2.71051   3.00245   4.01047
   4.22872   4.34647   4.47149   4.59854   4.64817   4.74467   4.83431   4.98650
   5.20382   5.25390   5.44283   5.53440


              NET ATOMIC CHARGES AND DIPOLE CONTRIBUTIONS

  ATOM NO.   TYPE          CHARGE      No. of ELECS.   s-Pop       p-Pop       
    1          O          -0.536538        6.5365     1.82004     4.71650
    2          C          -0.068060        4.0681     1.11199     2.95607
    3          C           0.067933        3.9321     1.12084     2.81123
    4          C           0.028274        3.9717     1.13458     2.83715
    5          C           0.097152        3.9028     1.11678     2.78607
    6          C          -0.054707        4.0547     1.13321     2.92150
    7          C           0.384658        3.6153     1.16126     2.45408
    8          O          -0.492402        6.4924     1.85212     4.64028
    9          O          -0.524405        6.5244     1.82285     4.70155
   10          O          -0.547336        6.5473     1.82490     4.72244
   11          O          -0.584802        6.5848     1.81385     4.77095
   12          O          -0.546205        6.5462     1.82653     4.71968
   13          H           0.314024        0.6860     0.68598
   14          H           0.140560        0.8594     0.85944
   15          H           0.157548        0.8425     0.84245
   16          H           0.167269        0.8327     0.83273
   17          H           0.165611        0.8344     0.83439
   18          H           0.166313        0.8337     0.83369
   19          H           0.186688        0.8133     0.81331
   20          H           0.137710        0.8623     0.86229
   21          H           0.333888        0.6661     0.66611
   22          H           0.342202        0.6578     0.65780
   23          H           0.334255        0.6657     0.66574
   24          H           0.330371        0.6696     0.66963
 DIPOLE           X         Y         Z       TOTAL
 POINT-CHG.    -0.423    -1.679     1.135     2.070
 HYBRID        -0.106    -0.588     0.225     0.639
 SUM           -0.529    -2.268     1.359     2.696


          ATOMIC ORBITAL ELECTRON POPULATIONS

     Atom    s        px        py        pz   
    1  O   1.82004   1.29493   1.92773   1.49384
    2  C   1.11199   0.77879   1.01954   1.15774
    3  C   1.12084   0.77287   0.98687   1.05148
    4  C   1.13458   1.04913   0.98299   0.80503
    5  C   1.11678   0.94171   0.94733   0.89703
    6  C   1.13321   0.95117   1.11397   0.85636
    7  C   1.16126   0.95413   0.65450   0.84545
    8  O   1.85212   1.76584   1.50265   1.37179
    9  O   1.82285   1.75725   1.51273   1.43157
   10  O   1.82490   1.52205   1.90506   1.29532
   11  O   1.81385   1.55753   1.82003   1.39339
   12  O   1.82653   1.33189   1.93808   1.44971
   13  H   0.68598
   14  H   0.85944
   15  H   0.84245
   16  H   0.83273
   17  H   0.83439
   18  H   0.83369
   19  H   0.81331
   20  H   0.86229
   21  H   0.66611
   22  H   0.65780
   23  H   0.66574
   24  H   0.66963

 **********************
 *                    *
 * JOB ENDED NORMALLY *
 *                    *
 **********************



 TOTAL JOB TIME:             0.61 SECONDS

 == MOPAC DONE ==
