 *******************************************************************************
 ** Site#: 3934         For non-commercial use only    Version 20.323L 64BITS **
 *******************************************************************************
 ** Cite this program as: MOPAC2016, Version: 20.323L, James J. P. Stewart,   **
 ** Stewart Computational Chemistry, web: HTTP://OpenMOPAC.net. Days left: 350**
 *******************************************************************************
 **                                                                           **
 **                                MOPAC2016                                  **
 **                                                                           **
 *******************************************************************************

                              PM6 CALCULATION RESULTS

 *******************************************************************************
 *  CALCULATION DONE:                                Fri Dec  4 15:14:45 2020  *
 *  PM6        - The PM6 Hamiltonian to be used
 *  PRECISE    - CRITERIA TO BE INCREASED BY 100 TIMES
 *  FORCE      - FORCE CALCULATION SPECIFIED
 *  T=         - A TIME OF 172800.0 SECONDS REQUESTED
 *  DUMP=N     - RESTART FILE WRITTEN EVERY 7200.0 SECONDS REQUESTED
 *  AUX        - OUTPUT AUXILIARY INFORMATION
 *******************************************************************************
pm6 precise force aux


   ATOM                 CHEMICAL                   X               Y               Z
  NUMBER                 SYMBOL               (ANGSTROMS)     (ANGSTROMS)     (ANGSTROMS)
 
     1       C(HETATM    1  C1  GAL A 350)   82.45499585  *  28.91171518  *  85.13509939  *
     2       O(HETATM    2  O1  GAL A 350)   82.42297322  *  28.39595453  *  83.82230757  *
     3       C(HETATM    3  C2  GAL A 350)   81.68570357  *  27.96486412  *  86.09244833  *
     4       O(HETATM    4  O2  GAL A 350)   80.27872960  *  28.19788453  *  85.94705577  *
     5       C(HETATM    5  C3  GAL A 350)   81.97282739  *  28.30993415  *  87.56396852  *
     6       O(HETATM    6  O3  GAL A 350)   81.51215091  *  27.25246333  *  88.41759692  *
     7       C(HETATM    7  C4  GAL A 350)   83.49212039  *  28.35228428  *  87.84462107  *
     8       O(HETATM    8  O4  GAL A 350)   84.04427271  *  27.03361619  *  87.78491548  *
     9       C(HETATM    9  C5  GAL A 350)   84.24706705  *  29.20584385  *  86.80470154  *
    10       O(HETATM   10  O5  GAL A 350)   83.85688150  *  28.92274385  *  85.44061378  *
    11       C(HETATM   11  C6  GAL A 350)   85.75690556  *  28.90215330  *  86.79323181  *
    12       O(HETATM   12  O6  GAL A 350)   86.48624944  *  30.11638924  *  86.61396211  *
    13       H(HETATM   13  HO1 GAL A 350)   83.17840278  *  27.77034855  *  83.67788951  *
    14       H(HETATM   14  HO2 GAL A 350)   79.99953832  *  27.99409854  *  85.02312382  *
    15       H(HETATM   15  HO3 GAL A 350)   80.56647251  *  27.05146639  *  88.21436845  *
    16       H(HETATM   16  HO4 GAL A 350)   83.43273634  *  26.40000358  *  88.24744202  *
    17       H(HETATM   17  HO6 GAL A 350)   86.39150964  *  30.43709050  *  85.69084546  *
    18       H(HETATM   18  H1  GAL A 350)   82.03839582  *  29.93639934  *  85.07572489  *
    19       H(HETATM   19  H2  GAL A 350)   81.91309022  *  26.89738768  *  85.87351803  *
    20       H(HETATM   20  H3  GAL A 350)   81.45487702  *  29.25104984  *  87.85865479  *
    21       H(HETATM   21  H4  GAL A 350)   83.67687207  *  28.74247023  *  88.87589885  *
    22       H(HETATM   22  H5  GAL A 350)   84.05526087  *  30.28989176  *  86.98416034  *
    23       H(HETATM   23  H61 GAL A 350)   86.00461840  *  28.17175932  *  85.99962722  *
    24       H(HETATM   24  H62 GAL A 350)   86.11304509  *  28.52038427  *  87.77054026  *
 

 General Reference for PM6:
 "Optimization of Parameters for Semiempirical Methods V: Modification of NDDO Approximations
 and Application to 70 Elements", J. J. P. Stewart, J. Mol. Mod., 13, 1173-1213 (2007)
 URL: https://link.springer.com/article/10.1007/s00894-007-0233-4

           Empirical Formula: C6 H12 O6  =    24 atoms



      MOLECULAR POINT GROUP   :   C1  


      RHF CALCULATION, NO. OF DOUBLY OCCUPIED LEVELS = 36



          HEAT OF FORMATION =    -273.289362 KCALS/MOLE


          CARTESIAN COORDINATE DERIVATIVES

   NUMBER  ATOM         X            Y            Z

     1       C     -0.001514    -0.001085    -0.000830
     2       O      0.000420     0.004038     0.000092
     3       C     -0.002124     0.001177     0.001469
     4       O      0.000125     0.008685     0.004688
     5       C     -0.002414     0.002351     0.004577
     6       O     -0.005987     0.004249     0.007261
     7       C      0.000895     0.002403     0.004214
     8       O     -0.002344     0.014301     0.009690
     9       C      0.001075     0.002482     0.000702
    10       O      0.001384    -0.001193     0.001787
    11       C     -0.002562    -0.000160    -0.001298
    12       O     -0.002757    -0.009493     0.006180
    13       H     -0.001295    -0.006782    -0.002881
    14       H     -0.002992    -0.009602    -0.011050
    15       H      0.001462     0.004228     0.001642
    16       H      0.004265     0.004055     0.001100
    17       H      0.012045    -0.009953    -0.005623
    18       H      0.001384    -0.003417    -0.006253
    19       H     -0.000731     0.003496     0.003339
    20       H     -0.000014     0.011936     0.010027
    21       H     -0.000402    -0.004673    -0.009970
    22       H     -0.001412     0.002926    -0.000232
    23       H      0.000914    -0.012915    -0.005335
    24       H      0.002581    -0.007052    -0.013293
 
 DIPOLE           X         Y         Z       TOTAL
 POINT-CHG.    -0.717     0.415     1.106     1.382
 HYBRID         1.173     0.778     0.324     1.444
 SUM            0.456     1.193     1.430     1.917


          GRADIENT NORM =   0.04739


          TIME FOR SCF CALCULATION =    0.01

          TIME FOR DERIVATIVES     =    0.01

          MOLECULAR WEIGHT =  180.16



          ROTATIONAL CONSTANTS IN CM(-1)

          A =    0.04212691   B =    0.02437879   C =    0.01734591



           PRINCIPAL MOMENTS OF INERTIA IN UNITS OF 10**(-40)*GRAM-CM**2

          A =      664.4867   B =     1148.2431   C =     1613.7964


          ORIENTATION OF MOLECULE IN FORCE CALCULATION

    NO.       ATOM         X         Y         Z

     1          C       1.1183   -0.4167    1.0891
     2          O       2.5292   -0.4167    1.0891
     3          C       0.5911    1.0417    1.0891
     4          O       0.6731    1.5668    2.4205
     5          C      -0.9108    1.0892    0.7592
     6          O      -1.3081    2.4355    0.4612
     7          C      -1.2219    0.3321   -0.5518
     8          O      -0.6968    1.0476   -1.6741
     9          C      -0.5835   -1.0722   -0.5722
    10          O       0.7982   -1.0785   -0.1430
    11          C      -0.4960   -1.6473   -1.9982
    12          O      -0.7897   -3.0442   -1.9678
    13          H       2.8751   -0.3787    0.1608
    14          H       1.6137    1.5799    2.7177
    15          H      -1.0240    3.0341    1.1940
    16          H      -0.8817    2.0183   -1.5607
    17          H      -0.0458   -3.5395   -1.5612
    18          H       0.8084   -1.0132    1.9696
    19          H       1.1799    1.6839    0.3963
    20          H      -1.5173    0.7256    1.6199
    21          H      -2.3284    0.2583   -0.6941
    22          H      -1.1424   -1.7591    0.1060
    23          H       0.5038   -1.4633   -2.4353
    24          H      -1.2739   -1.2270   -2.6659


    FIRST DERIVATIVES WILL BE USED IN THE CALCULATION OF SECOND DERIVATIVES

          ESTIMATED TIME TO COMPLETE CALCULATION =        6.75 SECONDS

    FOR POINT-GROUP C1   THERE ARE   1 UNIQUE SYMMETRY FUNCTIONS.

 STEP:   1 TIME =     0.08 SECS, INTEGRAL =      0.08 TIME LEFT: 172799.90
 STEP:   2 TIME =     0.07 SECS, INTEGRAL =      0.14 TIME LEFT: 172799.83
 STEP:   3 TIME =     0.06 SECS, INTEGRAL =      0.21 TIME LEFT: 172799.77
 STEP:   4 TIME =     0.07 SECS, INTEGRAL =      0.27 TIME LEFT: 172799.70
 STEP:   5 TIME =     0.07 SECS, INTEGRAL =      0.34 TIME LEFT: 172799.64
 STEP:   6 TIME =     0.07 SECS, INTEGRAL =      0.41 TIME LEFT: 172799.57
 STEP:   7 TIME =     0.06 SECS, INTEGRAL =      0.47 TIME LEFT: 172799.51
 STEP:   8 TIME =     0.07 SECS, INTEGRAL =      0.54 TIME LEFT: 172799.44
 STEP:   9 TIME =     0.06 SECS, INTEGRAL =      0.60 TIME LEFT: 172799.38
 STEP:  10 TIME =     0.07 SECS, INTEGRAL =      0.66 TIME LEFT: 172799.31
 STEP:  11 TIME =     0.06 SECS, INTEGRAL =      0.73 TIME LEFT: 172799.25
 STEP:  12 TIME =     0.07 SECS, INTEGRAL =      0.79 TIME LEFT: 172799.18
 STEP:  13 TIME =     0.06 SECS, INTEGRAL =      0.86 TIME LEFT: 172799.12
 STEP:  14 TIME =     0.05 SECS, INTEGRAL =      0.90 TIME LEFT: 172799.07
 STEP:  15 TIME =     0.04 SECS, INTEGRAL =      0.95 TIME LEFT: 172799.03
 STEP:  16 TIME =     0.05 SECS, INTEGRAL =      0.99 TIME LEFT: 172798.98
 STEP:  17 TIME =     0.04 SECS, INTEGRAL =      1.04 TIME LEFT: 172798.94
 STEP:  18 TIME =     0.05 SECS, INTEGRAL =      1.08 TIME LEFT: 172798.89
 STEP:  19 TIME =     0.05 SECS, INTEGRAL =      1.13 TIME LEFT: 172798.85
 STEP:  20 TIME =     0.04 SECS, INTEGRAL =      1.17 TIME LEFT: 172798.80
 STEP:  21 TIME =     0.05 SECS, INTEGRAL =      1.22 TIME LEFT: 172798.76
 STEP:  22 TIME =     0.05 SECS, INTEGRAL =      1.27 TIME LEFT: 172798.71
 STEP:  23 TIME =     0.05 SECS, INTEGRAL =      1.31 TIME LEFT: 172798.66
 STEP:  24 TIME =     0.05 SECS, INTEGRAL =      1.36 TIME LEFT: 172798.62
 STEP:  25 TIME =     0.05 SECS, INTEGRAL =      1.41 TIME LEFT: 172798.57
 STEP:  26 TIME =     0.04 SECS, INTEGRAL =      1.45 TIME LEFT: 172798.53
 STEP:  27 TIME =     0.05 SECS, INTEGRAL =      1.50 TIME LEFT: 172798.48
 STEP:  28 TIME =     0.04 SECS, INTEGRAL =      1.54 TIME LEFT: 172798.44
 STEP:  29 TIME =     0.05 SECS, INTEGRAL =      1.59 TIME LEFT: 172798.39
 STEP:  30 TIME =     0.05 SECS, INTEGRAL =      1.64 TIME LEFT: 172798.34
 STEP:  31 TIME =     0.04 SECS, INTEGRAL =      1.68 TIME LEFT: 172798.30
 STEP:  32 TIME =     0.05 SECS, INTEGRAL =      1.73 TIME LEFT: 172798.25
 STEP:  33 TIME =     0.04 SECS, INTEGRAL =      1.77 TIME LEFT: 172798.21
 STEP:  34 TIME =     0.05 SECS, INTEGRAL =      1.82 TIME LEFT: 172798.16
 STEP:  35 TIME =     0.05 SECS, INTEGRAL =      1.86 TIME LEFT: 172798.11
 STEP:  36 TIME =     0.04 SECS, INTEGRAL =      1.91 TIME LEFT: 172798.07
 STEP:  37 TIME =     0.05 SECS, INTEGRAL =      1.95 TIME LEFT: 172798.02
 STEP:  38 TIME =     0.05 SECS, INTEGRAL =      2.00 TIME LEFT: 172797.98
 STEP:  39 TIME =     0.05 SECS, INTEGRAL =      2.05 TIME LEFT: 172797.93
 STEP:  40 TIME =     0.04 SECS, INTEGRAL =      2.09 TIME LEFT: 172797.89
 STEP:  41 TIME =     0.05 SECS, INTEGRAL =      2.14 TIME LEFT: 172797.84
 STEP:  42 TIME =     0.05 SECS, INTEGRAL =      2.18 TIME LEFT: 172797.79
 STEP:  43 TIME =     0.05 SECS, INTEGRAL =      2.23 TIME LEFT: 172797.75
 STEP:  44 TIME =     0.05 SECS, INTEGRAL =      2.28 TIME LEFT: 172797.70
 STEP:  45 TIME =     0.05 SECS, INTEGRAL =      2.32 TIME LEFT: 172797.65
 STEP:  46 TIME =     0.05 SECS, INTEGRAL =      2.37 TIME LEFT: 172797.61
 STEP:  47 TIME =     0.04 SECS, INTEGRAL =      2.41 TIME LEFT: 172797.56
 STEP:  48 TIME =     0.05 SECS, INTEGRAL =      2.46 TIME LEFT: 172797.52
 STEP:  49 TIME =     0.05 SECS, INTEGRAL =      2.51 TIME LEFT: 172797.47
 STEP:  50 TIME =     0.05 SECS, INTEGRAL =      2.55 TIME LEFT: 172797.42
 STEP:  51 TIME =     0.05 SECS, INTEGRAL =      2.60 TIME LEFT: 172797.38
 STEP:  52 TIME =     0.04 SECS, INTEGRAL =      2.64 TIME LEFT: 172797.33
 STEP:  53 TIME =     0.05 SECS, INTEGRAL =      2.69 TIME LEFT: 172797.29
 STEP:  54 TIME =     0.05 SECS, INTEGRAL =      2.74 TIME LEFT: 172797.24
 STEP:  55 TIME =     0.04 SECS, INTEGRAL =      2.78 TIME LEFT: 172797.20
 STEP:  56 TIME =     0.05 SECS, INTEGRAL =      2.83 TIME LEFT: 172797.15
 STEP:  57 TIME =     0.05 SECS, INTEGRAL =      2.88 TIME LEFT: 172797.10
 STEP:  58 TIME =     0.04 SECS, INTEGRAL =      2.92 TIME LEFT: 172797.06
 STEP:  59 TIME =     0.05 SECS, INTEGRAL =      2.96 TIME LEFT: 172797.01
 STEP:  60 TIME =     0.05 SECS, INTEGRAL =      3.01 TIME LEFT: 172796.96
 STEP:  61 TIME =     0.04 SECS, INTEGRAL =      3.05 TIME LEFT: 172796.92
 STEP:  62 TIME =     0.05 SECS, INTEGRAL =      3.10 TIME LEFT: 172796.88
 STEP:  63 TIME =     0.05 SECS, INTEGRAL =      3.15 TIME LEFT: 172796.83
 STEP:  64 TIME =     0.04 SECS, INTEGRAL =      3.19 TIME LEFT: 172796.79
 STEP:  65 TIME =     0.05 SECS, INTEGRAL =      3.24 TIME LEFT: 172796.74
 STEP:  66 TIME =     0.05 SECS, INTEGRAL =      3.29 TIME LEFT: 172796.69
 STEP:  67 TIME =     0.04 SECS, INTEGRAL =      3.33 TIME LEFT: 172796.65
 STEP:  68 TIME =     0.05 SECS, INTEGRAL =      3.38 TIME LEFT: 172796.60
 STEP:  69 TIME =     0.05 SECS, INTEGRAL =      3.42 TIME LEFT: 172796.55
 STEP:  70 TIME =     0.05 SECS, INTEGRAL =      3.47 TIME LEFT: 172796.51
 STEP:  71 TIME =     0.04 SECS, INTEGRAL =      3.51 TIME LEFT: 172796.46
 STEP:  72 TIME =     0.05 SECS, INTEGRAL =      3.56 TIME LEFT: 172796.42

(To convert to Hartree/Bohr^2, multiply by (10^(-21) x N x a0^2)/(4.184 x 627.51) =  0.0642)


           FORCE MATRIX IN MILLIDYNES/ANGSTROM


                  C  1       O  2       C  3       O  4       C  5       O  6
 ------------------------------------------------------------------------------
     C    1  12.304771
     O    2   4.069513   7.779403
     C    3   2.816520   0.834232  12.455934
     O    4   0.711576   0.069930   4.027470   7.504168
     C    5   0.661156   0.056491   3.070194   0.882679  12.591721
     O    6   0.108392   0.064396   0.867872   0.060804   3.953527   7.468553
     C    7   0.122089   0.035341   0.596821   0.079237   2.938173   0.907034
     O    8   0.067348   0.035300   0.026509   0.034155   0.885721   0.099548
     C    9   0.902371   0.189334   0.095652   0.059783   0.594559   0.085222
     O   10   3.715451   1.431364   0.688948   0.157990   0.072745   0.053159
     C   11   0.099978   0.060140   0.013936   0.023925   0.043678   0.021528
     O   12   0.045975   0.034189   0.012155   0.020386   0.011041   0.025615
     H   13   1.023832   3.190003   0.066224   0.021054   0.014030   0.017554
     H   14   0.137235   0.057780   0.906453   3.250030   0.114624   0.022744
     H   15   0.025264   0.019498   0.091615   0.052845   0.920656   3.234144
     H   16   0.035548   0.014942   0.018357   0.020200   0.133535   0.089814
     H   17   0.022981   0.015869   0.003694   0.007371   0.004886   0.008031
     H   18   3.198984   0.736360   0.556218   0.033697   0.022514   0.013298
     H   19   0.615673   0.040994   3.225245   0.709275   0.599967   0.036114
     H   20   0.030065   0.012087   0.616708   0.019557   3.209385   0.730462
     H   21   0.023534   0.008232   0.044906   0.018174   0.612347   0.017153
     H   22   0.077707   0.016249   0.003734   0.006333   0.019704   0.008343
     H   23   0.016403   0.014424   0.001708   0.003721   0.003406   0.004746
     H   24   0.016936   0.009199   0.003519   0.004531   0.005334   0.006186


                  C  7       O  8       C  9       O 10       C 11       O 12
 ------------------------------------------------------------------------------
     C    7  12.508078
     O    8   3.986544   7.482842
     C    9   2.952414   0.820714  12.099815
     O   10   0.759431   0.072474   3.444706   9.116668
     C   11   0.613884   0.029502   2.989365   0.891643  11.718737
     O   12   0.070665   0.030476   0.871561   0.077937   4.094416   7.574340
     H   13   0.015071   0.016421   0.039443   0.056961   0.012281   0.010935
     H   14   0.020498   0.011660   0.016553   0.042641   0.007940   0.007284
     H   15   0.109781   0.029742   0.025081   0.020051   0.009007   0.008335
     H   16   0.932934   3.200955   0.115983   0.038137   0.017471   0.015127
     H   17   0.009242   0.012054   0.069254   0.035957   0.939406   3.286598
     H   18   0.006750   0.006290   0.063226   0.635383   0.013537   0.007256
     H   19   0.025678   0.027587   0.007725   0.025925   0.003479   0.003618
     H   20   0.533161   0.075022   0.016480   0.009039   0.005126   0.005832
     H   21   3.166288   0.754042   0.565354   0.076301   0.018398   0.010593
     H   22   0.579031   0.065109   3.198434   0.728135   0.589039   0.036552
     H   23   0.019360   0.014432   0.647080   0.027024   3.295532   0.721299
     H   24   0.060519   0.023026   0.584893   0.047695   3.312432   0.751994


                  H 13       H 14       H 15       H 16       H 17       H 18
 ------------------------------------------------------------------------------
     H   13   3.759276
     H   14   0.012815   3.743406
     H   15   0.005664   0.013229   3.736789
     H   16   0.005986   0.006911   0.026338   3.715060
     H   17   0.006628   0.002795   0.002774   0.005044   3.786493
     H   18   0.108514   0.011951   0.005032   0.003611   0.002849   4.146653
     H   19   0.020888   0.054847   0.018746   0.014447   0.001511   0.046037
     H   20   0.003258   0.007939   0.054794   0.015223   0.001720   0.006108
     H   21   0.002945   0.005011   0.005762   0.057702   0.002250   0.002086
     H   22   0.004844   0.001938   0.002230   0.017795   0.018967   0.005958
     H   23   0.008829   0.001528   0.001601   0.003617   0.059773   0.001850
     H   24   0.002692   0.001474   0.001455   0.005272   0.121077   0.002112


                  H 19       H 20       H 21       H 22       H 23       H 24
 ------------------------------------------------------------------------------
     H   19   4.158483
     H   20   0.046365   4.152940
     H   21   0.003282   0.016697   4.125430
     H   22   0.001330   0.006875   0.017570   4.142542
     H   23   0.001828   0.000975   0.002358   0.040635   4.149984
     H   24   0.000931   0.001169   0.012528   0.020570   0.406004   4.191521


          HEAT OF FORMATION =    -273.289362 KCALS/MOLE

          ZERO POINT ENERGY     107.347 KCAL/MOL


           NORMAL COORDINATE ANALYSIS (Total motion = 1 Angstrom)


   Root No.       1         2         3         4         5         6         7         8

                 1 A       2 A       3 A       4 A       5 A       6 A       7 A       8 A   

                  34.4      48.4      71.6      97.1     174.0     220.1     241.8     250.4
  
           1   -0.0164   -0.0083   -0.0085    0.0071   -0.0029   -0.0159    0.0049   -0.0145
           2   -0.0115   -0.0037    0.0008    0.0038    0.0061   -0.0080   -0.0212   -0.0155
           3   -0.0016    0.0176    0.0038    0.0163   -0.0055   -0.0065    0.0068    0.0019
           4   -0.0167   -0.0089   -0.0079    0.0097   -0.0039   -0.0152    0.0053   -0.0137
           5   -0.0336   -0.0257    0.0028    0.0286    0.0187    0.0228    0.0040    0.0881
           6    0.0042    0.0503   -0.0310   -0.0542    0.0184    0.0025   -0.0130    0.0384
           7    0.0043    0.0092   -0.0068   -0.0012   -0.0060   -0.0165   -0.0181   -0.0204
           8   -0.0041    0.0023    0.0015   -0.0001    0.0065   -0.0085   -0.0330   -0.0249
           9   -0.0060   -0.0175   -0.0197    0.0121    0.0040    0.0002    0.0072   -0.0087
          10    0.0189    0.0382    0.0213   -0.0126    0.0145    0.0519   -0.0467    0.0260
          11    0.0031    0.0502    0.0377   -0.0086    0.0041   -0.0298    0.0528   -0.0181
          12   -0.0099   -0.0390   -0.0367    0.0174    0.0031    0.0032   -0.0275   -0.0159
          13    0.0029    0.0035   -0.0128    0.0030   -0.0072   -0.0173   -0.0173   -0.0134
          14    0.0125   -0.0064   -0.0142    0.0124    0.0033    0.0039   -0.0247   -0.0028
          15    0.0023    0.0068    0.0062    0.0018    0.0119    0.0117    0.0122   -0.0072
          16    0.0174   -0.0097   -0.0454    0.0305   -0.0092   -0.0153    0.0606    0.0397
          17    0.0160   -0.0112   -0.0156    0.0134   -0.0065   -0.0054   -0.0027    0.0233
          18   -0.0013    0.0035    0.0481   -0.0366   -0.0367   -0.0485   -0.0040    0.0437
          19   -0.0159   -0.0097    0.0104   -0.0082    0.0024   -0.0058   -0.0099    0.0018
          20    0.0104   -0.0181    0.0127   -0.0095   -0.0181   -0.0004   -0.0129    0.0041
          21    0.0077    0.0164   -0.0141    0.0188    0.0229    0.0062    0.0071   -0.0163
          22   -0.0250   -0.0449    0.0793   -0.0172    0.0494   -0.0008    0.0026   -0.0117
          23    0.0041   -0.0114    0.0167   -0.0276   -0.0354    0.0469    0.0375   -0.0123
          24   -0.0004    0.0040    0.0194    0.0023    0.0317    0.0391    0.0456   -0.0325
          25   -0.0246    0.0095   -0.0208   -0.0173   -0.0001   -0.0005    0.0058    0.0029
          26    0.0063   -0.0098   -0.0008   -0.0126   -0.0188    0.0041   -0.0073   -0.0024
          27    0.0020    0.0013   -0.0010    0.0212    0.0197   -0.0144   -0.0072   -0.0062
          28   -0.0225    0.0059   -0.0317   -0.0297    0.0125   -0.0043    0.0083    0.0055
          29   -0.0032   -0.0062   -0.0409   -0.0474    0.0146   -0.0125    0.0043   -0.0330
          30   -0.0045    0.0150    0.0324    0.0566   -0.0170   -0.0024   -0.0127    0.0068
          31   -0.0328    0.0294    0.0006    0.0208   -0.0527    0.0274   -0.0036   -0.0169
          32    0.0132    0.0155    0.0002    0.0209    0.0134   -0.0099   -0.0108   -0.0041
          33   -0.0012   -0.0081   -0.0005    0.0078    0.0024   -0.0065   -0.0064   -0.0069
          34    0.0931   -0.0103    0.0138    0.0134   -0.0066    0.0034   -0.0026   -0.0035
          35   -0.0128    0.0233   -0.0025    0.0225    0.0044   -0.0059   -0.0121   -0.0072
          36    0.0097   -0.0441   -0.0059   -0.0440   -0.0357    0.0179   -0.0023   -0.0063
          37   -0.0120    0.0137   -0.0314   -0.0391    0.0124   -0.0098   -0.0094    0.0116
          38   -0.0353   -0.0368   -0.0266   -0.0239    0.0408    0.0291    0.0638    0.0850
          39    0.0058    0.0584   -0.0410   -0.0747    0.0257    0.0052   -0.0165    0.0500
          40    0.0202    0.0418    0.0286   -0.0118    0.0172    0.0658   -0.0596    0.0341
          41   -0.0140    0.0302    0.0518    0.0223   -0.0218   -0.0862    0.0452   -0.0799
          42   -0.0129   -0.0484   -0.0599    0.0128   -0.0025   -0.0314    0.0095   -0.0306
          43    0.0323    0.0176   -0.0348    0.0223   -0.0121    0.0248    0.1271    0.0511
          44    0.0164   -0.0011   -0.0283    0.0252    0.0219    0.0391   -0.0068   -0.0243
          45   -0.0074   -0.0147    0.0556   -0.0437   -0.0602   -0.1033   -0.0244    0.0815
          46   -0.0111   -0.0526    0.0517   -0.0054    0.0288   -0.0601    0.0003    0.0612
          47    0.0066   -0.0130    0.0127   -0.0238   -0.0354    0.0374    0.0351   -0.0024
          48    0.0021    0.0087    0.0058   -0.0090   -0.0020    0.0481    0.0861   -0.0071
          49    0.1428   -0.0312    0.0082   -0.0072    0.0301   -0.0160    0.0065    0.0113
          50    0.0579   -0.0076    0.0063    0.0074    0.0115   -0.0076   -0.0120   -0.0022
          51    0.0062   -0.0442    0.0160   -0.0249   -0.0946    0.0518   -0.0187   -0.0270
          52   -0.0292   -0.0372    0.0139    0.0589   -0.0125   -0.0094    0.0246    0.0023
          53   -0.0071    0.0104    0.0228    0.0232   -0.0031   -0.0120   -0.0471   -0.0271
          54   -0.0032    0.0168    0.0266    0.0477   -0.0150   -0.0067   -0.0065   -0.0005
          55    0.0085   -0.0002   -0.0223    0.0073   -0.0136   -0.0266   -0.0257   -0.0212
          56   -0.0159   -0.0257   -0.0163    0.0029    0.0074   -0.0118   -0.0497   -0.0352
          57   -0.0132   -0.0514   -0.0500    0.0214   -0.0025   -0.0140   -0.0212   -0.0239
          58    0.0037    0.0179    0.0016   -0.0075   -0.0088   -0.0274   -0.0375   -0.0311
          59    0.0240   -0.0030   -0.0526    0.0453    0.0290    0.0364    0.0109   -0.0146
          60    0.0078    0.0181   -0.0009    0.0084    0.0199    0.0144    0.0091   -0.0248
          61   -0.0180   -0.0115    0.0146   -0.0102    0.0055   -0.0037   -0.0057    0.0022
          62    0.0172   -0.0364    0.0438   -0.0072   -0.0032   -0.0087   -0.0235   -0.0061
          63    0.0206    0.0382   -0.0573    0.0289    0.0026   -0.0025   -0.0112   -0.0202
          64   -0.0245    0.0105   -0.0521   -0.0407    0.0284   -0.0099    0.0151   -0.0069
          65    0.0063   -0.0269    0.0105   -0.0203   -0.0266    0.0005   -0.0130    0.0058
          66    0.0017   -0.0152   -0.0151   -0.0071    0.0316   -0.0228   -0.0044   -0.0054
          67   -0.0669    0.0452    0.0043    0.0350   -0.0824    0.0442   -0.0076   -0.0287
          68    0.1015   -0.0029    0.0093    0.0285    0.0641   -0.0385   -0.0114    0.0072
          69   -0.0422    0.0206    0.0115    0.0433   -0.0441    0.0195   -0.0153   -0.0279
          70   -0.0979    0.0578    0.0046    0.0437   -0.1012    0.0543   -0.0100   -0.0359
          71   -0.0555    0.0510   -0.0069    0.0446    0.0075   -0.0077   -0.0132   -0.0118
          72    0.0321   -0.0198   -0.0089   -0.0046    0.0537   -0.0346   -0.0003    0.0094


   Root No.       9        10        11        12        13        14        15        16

                 9 A      10 A      11 A      12 A      13 A      14 A      15 A      16 A   

                 268.9     295.5     307.3     315.1     327.2     347.2     355.0     368.2
  
           1   -0.0181    0.0142   -0.0008    0.0059   -0.0054    0.0088    0.0071    0.0065
           2    0.0053   -0.0093   -0.0128    0.0123   -0.0073    0.0078   -0.0116    0.0027
           3   -0.0085   -0.0035    0.0005    0.0014    0.0201   -0.0189    0.0124   -0.0014
           4   -0.0196    0.0101   -0.0002    0.0019   -0.0050    0.0089    0.0075    0.0061
           5   -0.0066   -0.0252   -0.0021   -0.0108    0.0001   -0.0002    0.0047   -0.0105
           6   -0.0167   -0.0016    0.0009    0.0108   -0.0126    0.0104    0.0029    0.0015
           7   -0.0106   -0.0029   -0.0184    0.0074   -0.0026    0.0039   -0.0013   -0.0018
           8    0.0051   -0.0130   -0.0205    0.0137   -0.0061    0.0064   -0.0145    0.0011
           9    0.0098   -0.0101   -0.0120   -0.0053    0.0354   -0.0264    0.0134   -0.0116
          10    0.0200   -0.0060    0.0015    0.0015    0.0268   -0.0150    0.0058   -0.0017
          11    0.0075    0.0024   -0.0272   -0.0131    0.0329   -0.0095    0.0003   -0.0200
          12    0.0072   -0.0171   -0.0142    0.0070    0.0196   -0.0210    0.0063   -0.0051
          13   -0.0111   -0.0051   -0.0223    0.0076    0.0025   -0.0036    0.0012   -0.0056
          14    0.0083   -0.0014   -0.0099    0.0055   -0.0211    0.0034   -0.0109    0.0069
          15    0.0109   -0.0047    0.0030   -0.0032    0.0060    0.0004   -0.0007   -0.0037
          16    0.0210   -0.0106    0.0191    0.0113    0.0089    0.0051   -0.0138   -0.0188
          17    0.0204   -0.0034   -0.0008    0.0063   -0.0294    0.0049   -0.0170    0.0079
          18    0.0207   -0.0031   -0.0115   -0.0056   -0.0243   -0.0071   -0.0027    0.0042
          19   -0.0196   -0.0059   -0.0167    0.0051    0.0070   -0.0077    0.0013   -0.0032
          20   -0.0019    0.0013   -0.0055    0.0036    0.0030   -0.0007    0.0060    0.0044
          21    0.0104   -0.0013    0.0041   -0.0027   -0.0126    0.0100   -0.0102   -0.0017
          22    0.0155    0.0052    0.0093   -0.0054   -0.0147   -0.0061   -0.0031   -0.0096
          23   -0.0377   -0.0135   -0.0210    0.0254    0.0045    0.0054   -0.0012    0.0070
          24    0.0056   -0.0069    0.0059    0.0066   -0.0225    0.0155   -0.0182   -0.0050
          25   -0.0240   -0.0023    0.0018   -0.0017   -0.0010   -0.0047   -0.0040   -0.0055
          26   -0.0069    0.0074    0.0071   -0.0047    0.0037   -0.0014    0.0074   -0.0021
          27    0.0015    0.0105    0.0051    0.0018   -0.0105    0.0129    0.0069    0.0147
          28   -0.0177   -0.0021    0.0052   -0.0049   -0.0082    0.0048    0.0009   -0.0012
          29    0.0451   -0.0131    0.0079   -0.0080    0.0131   -0.0101    0.0114    0.0055
          30   -0.0267    0.0053   -0.0110    0.0101    0.0073   -0.0047   -0.0008    0.0035
          31    0.0367    0.0052    0.0134   -0.0125   -0.0057   -0.0006   -0.0168    0.0090
          32   -0.0216    0.0263    0.0321   -0.0229    0.0020    0.0027    0.0070   -0.0082
          33    0.0072    0.0061   -0.0000    0.0051   -0.0099    0.0133    0.0084    0.0180
          34    0.0098    0.0013    0.0012    0.0007   -0.0040    0.0064    0.0078   -0.0025
          35   -0.0167    0.0294    0.0374   -0.0278    0.0015    0.0018    0.0031   -0.0060
          36   -0.0197    0.0233    0.0370   -0.0324    0.0075   -0.0110   -0.0202   -0.0027
          37   -0.0252    0.0205   -0.0018    0.0149   -0.0296    0.0318    0.0011    0.0108
          38    0.0813    0.3523   -0.0186    0.2047    0.0525   -0.0626    0.0313    0.0645
          39   -0.0156    0.0200   -0.0001    0.0267   -0.0206    0.0171    0.0013    0.0074
          40    0.0231   -0.0291    0.0369    0.0194    0.0274   -0.0335    0.0189    0.0088
          41   -0.0403   -0.1666    0.2407    0.1612   -0.0434   -0.1152    0.0918    0.0729
          42    0.0012    0.0616   -0.1407   -0.0616    0.0248    0.0416   -0.0377   -0.0429
          43    0.0122    0.0132   -0.1176   -0.1398   -0.1695   -0.1265    0.1353    0.1214
          44    0.0006    0.0033   -0.0318   -0.0224   -0.0407   -0.0193    0.0211    0.0327
          45    0.0415   -0.0178    0.0657    0.0749    0.0528    0.0642   -0.0918   -0.0699
          46    0.0418   -0.0423    0.0277   -0.0701    0.1828    0.1570    0.0607    0.2077
          47   -0.0316   -0.0189   -0.0176    0.0148    0.0302    0.0273    0.0080    0.0358
          48   -0.0197   -0.0443   -0.0096   -0.0077    0.0764    0.0966    0.0143    0.1109
          49   -0.0423    0.0063    0.0133   -0.0260    0.0259   -0.0627   -0.1155    0.0638
          50   -0.0294    0.0322    0.0384   -0.0234    0.0008    0.0158    0.0404   -0.0372
          51    0.0595    0.0188    0.0161    0.0229   -0.0486    0.1331    0.2528   -0.1636
          52   -0.0197    0.0326    0.0010    0.0064    0.0127   -0.0052    0.0178    0.0070
          53   -0.0120   -0.0120   -0.0180    0.0232   -0.0265    0.0223   -0.0245    0.0126
          54   -0.0218    0.0019   -0.0038    0.0099    0.0112   -0.0114    0.0056    0.0060
          55   -0.0188   -0.0095   -0.0349   -0.0005   -0.0054   -0.0014    0.0028   -0.0012
          56    0.0063   -0.0078   -0.0289    0.0228   -0.0127    0.0190   -0.0259    0.0010
          57    0.0020   -0.0116   -0.0346   -0.0006    0.0233   -0.0164    0.0045   -0.0088
          58   -0.0168   -0.0020   -0.0259    0.0137   -0.0121    0.0124   -0.0075   -0.0028
          59    0.0147   -0.0015    0.0020    0.0012   -0.0297    0.0087   -0.0140    0.0094
          60    0.0086   -0.0021    0.0031   -0.0010   -0.0097    0.0129   -0.0076   -0.0004
          61   -0.0183   -0.0053   -0.0130    0.0043    0.0052   -0.0060    0.0004   -0.0017
          62    0.0197    0.0021   -0.0079    0.0004    0.0125   -0.0026    0.0131    0.0064
          63    0.0048   -0.0054   -0.0134    0.0041   -0.0126   -0.0012   -0.0128   -0.0146
          64   -0.0076   -0.0073    0.0113   -0.0097   -0.0070    0.0021   -0.0012   -0.0028
          65   -0.0125    0.0038   -0.0085    0.0099    0.0021    0.0023    0.0199    0.0035
          66    0.0042    0.0028   -0.0027    0.0096   -0.0161    0.0206    0.0205    0.0200
          67    0.0731    0.0087    0.0185   -0.0150   -0.0129    0.0059   -0.0199    0.0164
          68   -0.0473    0.0243    0.0234   -0.0149    0.0044    0.0042    0.0174   -0.0073
          69    0.0736    0.0132    0.0090    0.0005   -0.0221    0.0242    0.0007    0.0350
          70    0.0937    0.0105    0.0231   -0.0188   -0.0167    0.0084   -0.0245    0.0218
          71   -0.0018    0.0270    0.0324   -0.0230   -0.0042    0.0058   -0.0019    0.0064
          72   -0.0445    0.0014   -0.0096    0.0118   -0.0019    0.0048    0.0111    0.0111


   Root No.      17        18        19        20        21        22        23        24

                17 A      18 A      19 A      20 A      21 A      22 A      23 A      24 A   

                 401.1     416.8     477.7     515.5     547.2     641.0     732.7     866.2
  
           1    0.0141   -0.0002    0.0070    0.0482   -0.0012   -0.0076    0.0091    0.0003
           2   -0.0117   -0.0202    0.0537   -0.0001   -0.0139    0.0104    0.0062   -0.0048
           3    0.0152    0.0129    0.0046   -0.0105    0.0648    0.0020   -0.0065   -0.0322
           4    0.0187    0.0030    0.0060    0.0618    0.0048   -0.0128    0.0143   -0.0037
           5    0.0020   -0.0289   -0.0257   -0.0025    0.0080   -0.0028    0.0007    0.0017
           6    0.0019   -0.0251   -0.0031    0.0298   -0.0078   -0.0050    0.0074    0.0015
           7   -0.0102   -0.0397   -0.0289   -0.0119    0.0196   -0.0067   -0.0182    0.0008
           8   -0.0233   -0.0202    0.0294   -0.0140   -0.0168    0.0014   -0.0069   -0.0100
           9   -0.0010    0.0204   -0.0105    0.0176   -0.0233   -0.0157   -0.0007    0.0055
          10    0.0075    0.0098    0.0156    0.0037   -0.0051   -0.0135   -0.0073   -0.0001
          11   -0.0063    0.0137   -0.0136    0.0128   -0.0285   -0.0151   -0.0097    0.0026
          12   -0.0120    0.0018    0.0066    0.0099   -0.0297   -0.0245   -0.0208   -0.0002
          13   -0.0127   -0.0404   -0.0373   -0.0224    0.0174   -0.0116   -0.0102    0.0029
          14   -0.0100    0.0388   -0.0260    0.0090    0.0145   -0.0064    0.0053    0.0004
          15   -0.0099    0.0055   -0.0049    0.0145   -0.0152    0.0702    0.0391   -0.0034
          16    0.0031   -0.0256    0.0276   -0.0107   -0.0130    0.0144    0.0006   -0.0013
          17   -0.0068    0.0535   -0.0061    0.0156    0.0138   -0.0330    0.0077    0.0004
          18   -0.0074    0.0036    0.0066   -0.0057    0.0017   -0.0073   -0.0002   -0.0003
          19   -0.0118    0.0215   -0.0117   -0.0333   -0.0109    0.0183    0.1029   -0.0000
          20    0.0118    0.0028   -0.0181    0.0165   -0.0072    0.0506   -0.0185    0.0020
          21   -0.0208    0.0067   -0.0200    0.0041    0.0077    0.0327    0.0242   -0.0019
          22    0.0045   -0.0069    0.0022    0.0037    0.0024   -0.0018   -0.0051   -0.0010
          23    0.0189   -0.0027    0.0019   -0.0170   -0.0079   -0.0150    0.0182   -0.0032
          24   -0.0122   -0.0088   -0.0015    0.0042    0.0193   -0.0176   -0.0321    0.0054
          25   -0.0137    0.0466    0.0184   -0.0289    0.0141    0.0195   -0.0282    0.0238
          26    0.0083    0.0011   -0.0042    0.0187    0.0031    0.0544   -0.0617    0.0062
          27    0.0333    0.0053   -0.0054   -0.0356   -0.0235   -0.0137    0.0130    0.0048
          28   -0.0016    0.0408    0.0020   -0.0219   -0.0092    0.0098   -0.0402   -0.0396
          29    0.0274   -0.0181    0.0130   -0.0071    0.0529   -0.0014    0.0302    0.0079
          30    0.0030   -0.0005    0.0303    0.0051    0.0359    0.0093   -0.0012    0.0029
          31   -0.0015   -0.0019   -0.0074   -0.0029   -0.0030    0.0022   -0.0022    0.0569
          32   -0.0033   -0.0073    0.0033   -0.0099   -0.0053   -0.0092    0.0033   -0.0136
          33    0.0433    0.0039   -0.0108   -0.0372   -0.0331    0.0060   -0.0202    0.0191
          34    0.0024   -0.0004   -0.0026   -0.0029   -0.0047   -0.0010    0.0003   -0.0032
          35   -0.0024   -0.0089    0.0025   -0.0157   -0.0099   -0.0166    0.0081    0.0135
          36   -0.0175   -0.0120    0.0013    0.0005   -0.0001   -0.0107    0.0090   -0.0012
          37    0.0062   -0.0319    0.0024    0.1033   -0.0633   -0.0214    0.0375    0.0603
          38   -0.0738   -0.0195   -0.0195   -0.0418    0.0183    0.0026   -0.0135   -0.0062
          39   -0.0068   -0.0415   -0.0058    0.0492   -0.0381   -0.0096    0.0188    0.0339
          40    0.0052    0.0185    0.0268    0.0076   -0.0185   -0.0227   -0.0109    0.0004
          41   -0.0702   -0.0189   -0.0616    0.0128   -0.0472   -0.0113   -0.0114    0.0080
          42   -0.0001   -0.0216   -0.0200   -0.0024    0.0090   -0.0013   -0.0124   -0.0023
          43   -0.0459   -0.0614    0.0820   -0.0177   -0.0288   -0.0094   -0.0158   -0.0013
          44   -0.0195    0.0334   -0.0234    0.0215    0.0035    0.0305    0.0245   -0.0017
          45    0.0214    0.0351    0.0018   -0.0088    0.0166   -0.0561   -0.0094    0.0015
          46   -0.1009    0.0167   -0.0038    0.0178    0.0212    0.0185   -0.0451    0.0038
          47    0.0044    0.0003   -0.0002   -0.0123   -0.0051   -0.0088    0.0081   -0.0020
          48   -0.0550   -0.0025    0.0131   -0.0344    0.0191   -0.0853    0.0330   -0.0032
          49    0.0144   -0.0241   -0.0109    0.0151   -0.0091    0.0021    0.0040   -0.0808
          50   -0.0247   -0.0083    0.0109   -0.0035    0.0014   -0.0242    0.0228   -0.0929
          51   -0.0680    0.0322    0.0273   -0.0166    0.0218   -0.0270    0.0225   -0.0099
          52    0.0279    0.0152   -0.0013    0.0751    0.0276   -0.0164    0.0272    0.0167
          53   -0.0236   -0.0329    0.0907   -0.0136   -0.0114    0.0270   -0.0008   -0.0308
          54    0.0105    0.0073    0.0319   -0.0068    0.0684    0.0113   -0.0033   -0.0382
          55   -0.0170   -0.0414   -0.0821   -0.0345    0.0531   -0.0452   -0.0559    0.0063
          56   -0.0310   -0.0387    0.0720   -0.0013   -0.0595    0.0052   -0.0061   -0.0065
          57   -0.0176   -0.0046   -0.0159    0.0067   -0.0322   -0.0442   -0.0376    0.0107
          58   -0.0219   -0.0749   -0.0522   -0.0325    0.0408    0.0017   -0.0509   -0.0006
          59   -0.0145    0.0554   -0.0274    0.0284    0.0203    0.0067    0.0228   -0.0007
          60   -0.0194   -0.0140   -0.0208    0.0126    0.0067    0.0801    0.0131   -0.0059
          61   -0.0093    0.0250   -0.0057   -0.0334   -0.0102    0.0129    0.0910    0.0015
          62    0.0142   -0.0474   -0.0401    0.0431   -0.0081    0.0681   -0.0109   -0.0146
          63   -0.0355   -0.0064   -0.0472    0.0014    0.0189    0.0522    0.0364    0.0043
          64   -0.0043    0.0465    0.0191   -0.0383    0.0152   -0.0041   -0.0427   -0.0381
          65    0.0331    0.0095   -0.0135    0.0039   -0.0251    0.0737   -0.0802    0.0127
          66    0.0611    0.0161   -0.0112   -0.0575   -0.0482   -0.0069   -0.0251   -0.0304
          67    0.0082   -0.0203   -0.0277    0.0058   -0.0259   -0.0018    0.0078   -0.0633
          68    0.0115   -0.0062    0.0111   -0.0262   -0.0093   -0.0283    0.0165    0.0566
          69    0.0650   -0.0363   -0.0484   -0.0203   -0.0760   -0.0097    0.0091   -0.1839
          70    0.0140   -0.0296   -0.0382    0.0084   -0.0387   -0.0062    0.0130   -0.1396
          71    0.0123   -0.0056   -0.0064   -0.0282   -0.0229   -0.0156    0.0157   -0.0504
          72    0.0329    0.0355    0.0169   -0.0585   -0.0037    0.0111   -0.0267    0.1937


   Root No.      25        26        27        28        29        30        31        32

                25 A      26 A      27 A      28 A      29 A      30 A      31 A      32 A   

                 919.2     989.7    1010.9    1052.3    1072.5    1079.7    1085.4    1100.8
  
           1    0.0008   -0.0002   -0.0017    0.0022    0.0239   -0.0164   -0.0406    0.0118
           2    0.0080    0.0059   -0.0221   -0.0138    0.0206    0.0217    0.0103    0.0541
           3   -0.0167    0.0204    0.0349    0.0128    0.0039   -0.0028   -0.0242    0.0192
           4   -0.0034    0.0105    0.0254    0.0117   -0.0306    0.0167    0.0358    0.0039
           5   -0.0019   -0.0026    0.0039    0.0016    0.0012   -0.0018   -0.0009    0.0005
           6   -0.0001    0.0023    0.0067    0.0034   -0.0030    0.0021    0.0018    0.0071
           7   -0.0234   -0.0331    0.0231   -0.0052    0.0425   -0.0075    0.0092    0.0001
           8   -0.0115    0.0030    0.0383    0.0198   -0.0096   -0.0029    0.0051   -0.0464
           9    0.0095   -0.0035   -0.0134   -0.0096    0.0365    0.0173    0.0346    0.0126
          10   -0.0003   -0.0037    0.0030   -0.0007    0.0101   -0.0001    0.0029    0.0012
          11    0.0003    0.0007   -0.0024    0.0014   -0.0123   -0.0052   -0.0101   -0.0011
          12   -0.0042    0.0025    0.0030    0.0052   -0.0290   -0.0140   -0.0277   -0.0024
          13    0.0169    0.0238   -0.0305   -0.0059   -0.0134   -0.0044   -0.0058    0.0176
          14   -0.0065   -0.0026   -0.0103   -0.0009   -0.0291    0.0554    0.0068    0.0021
          15   -0.0445   -0.0206    0.0080   -0.0123    0.0063   -0.0002   -0.0004    0.0026
          16   -0.0028    0.0002    0.0005    0.0021   -0.0099    0.0144    0.0010   -0.0038
          17   -0.0017   -0.0039    0.0073   -0.0052    0.0234   -0.0383   -0.0042    0.0023
          18   -0.0023   -0.0013   -0.0034   -0.0016   -0.0109    0.0167    0.0012    0.0038
          19    0.0498    0.0070    0.0224   -0.0030    0.0022   -0.0005   -0.0047   -0.0038
          20    0.0014    0.0241   -0.0081    0.0211    0.0223    0.0170   -0.0028   -0.0177
          21    0.0070    0.0106   -0.0104    0.0108   -0.0093   -0.0275    0.0036   -0.0096
          22   -0.0134   -0.0054   -0.0067   -0.0022   -0.0100   -0.0088    0.0022    0.0037
          23   -0.0222   -0.0013   -0.0103    0.0019   -0.0067   -0.0071    0.0022   -0.0001
          24    0.0363    0.0106    0.0108    0.0032    0.0149    0.0191   -0.0031   -0.0045
          25    0.0128   -0.0312   -0.0096    0.0168   -0.0056    0.0033   -0.0067    0.0033
          26    0.0453   -0.0200    0.0158   -0.0097   -0.0147   -0.0145   -0.0033    0.0027
          27   -0.0146   -0.0022   -0.0124    0.0272    0.0150    0.0322   -0.0261   -0.0156
          28   -0.0188    0.0253   -0.0097   -0.0167    0.0089   -0.0038    0.0125   -0.0113
          29    0.0074   -0.0075   -0.0106   -0.0044   -0.0034   -0.0029    0.0042   -0.0128
          30    0.0075   -0.0124   -0.0254   -0.0144   -0.0034   -0.0012    0.0243   -0.0274
          31   -0.0195    0.0176    0.0027    0.0090    0.0067    0.0017   -0.0014   -0.0022
          32    0.0036   -0.0068   -0.0110    0.0222   -0.0009   -0.0214    0.0212   -0.0026
          33    0.0138   -0.0042    0.0107   -0.0111   -0.0178   -0.0400    0.0319    0.0210
          34    0.0022   -0.0009    0.0027   -0.0052   -0.0017    0.0018   -0.0029    0.0030
          35   -0.0044    0.0077    0.0142   -0.0285   -0.0023    0.0129   -0.0129    0.0048
          36   -0.0039    0.0024   -0.0002   -0.0012    0.0013    0.0019   -0.0009   -0.0013
          37    0.0408   -0.0575   -0.0990   -0.0380    0.0228   -0.0216   -0.0488   -0.0883
          38   -0.0073    0.0046    0.0131    0.0009   -0.0069    0.0057    0.0189    0.0052
          39    0.0223   -0.0339   -0.0566   -0.0229    0.0221   -0.0153   -0.0388   -0.0470
          40    0.0176    0.0249   -0.0164    0.0096   -0.0629   -0.0036   -0.0204   -0.0093
          41   -0.0161   -0.0334    0.0150   -0.0114    0.0640    0.0025    0.0261    0.0062
          42   -0.0442   -0.0623    0.0472   -0.0182    0.1373   -0.0031    0.0339    0.0228
          43    0.0270    0.0104    0.0160    0.0145    0.0169   -0.0527   -0.0029   -0.0180
          44   -0.0468   -0.0149   -0.0135   -0.0151   -0.0227    0.0777    0.0009    0.0182
          45    0.0313    0.0062    0.0106    0.0043    0.0197   -0.0711   -0.0014   -0.0080
          46    0.0063    0.0117   -0.0071    0.0175    0.0073    0.0155   -0.0060   -0.0066
          47   -0.0156    0.0039   -0.0097    0.0052   -0.0013   -0.0025    0.0012   -0.0025
          48    0.0153   -0.0247    0.0146   -0.0395   -0.0327   -0.0258    0.0055    0.0312
          49    0.0248   -0.0392   -0.0305    0.0725    0.0089    0.0014   -0.0003    0.0197
          50    0.0218   -0.0460   -0.0377    0.0868    0.0127    0.0079   -0.0046    0.0249
          51   -0.0074   -0.0062   -0.0149    0.0282    0.0039   -0.0023    0.0056    0.0021
          52    0.0248   -0.0211   -0.0718   -0.0350    0.0240   -0.0292   -0.1308   -0.0830
          53   -0.0080    0.0423   -0.0288   -0.0422    0.0265   -0.0090   -0.0578    0.0871
          54   -0.0132    0.0322   -0.0109   -0.0270    0.0160   -0.0291   -0.1053    0.0095
          55   -0.0161   -0.0471   -0.0021   -0.0155   -0.0254    0.0784    0.0515   -0.0348
          56   -0.0048    0.0155    0.0408    0.0309    0.0140   -0.0643   -0.0195   -0.0402
          57    0.0112   -0.0102   -0.0158   -0.0024   -0.0049    0.0256    0.0392   -0.0272
          58   -0.0438   -0.0112   -0.0363   -0.0020   -0.1176   -0.0345   -0.0742    0.0208
          59   -0.0564   -0.0423   -0.0241   -0.0403   -0.0699   -0.0150   -0.0257    0.0864
          60   -0.1003   -0.0533   -0.0126   -0.0236   -0.0976   -0.0462   -0.0620    0.0425
          61    0.0314   -0.0151    0.0234   -0.0011   -0.0051    0.0078   -0.0106   -0.0043
          62   -0.0545    0.1442   -0.0732    0.0190    0.0804   -0.0621    0.0398   -0.0220
          63    0.0688    0.0919   -0.0448    0.0030   -0.0145   -0.0418    0.0245    0.0169
          64   -0.0316   -0.0234   -0.0715   -0.0322   -0.0104   -0.0061    0.0263   -0.0658
          65    0.0851   -0.0149    0.0726   -0.0182    0.0262    0.0895   -0.1087    0.0311
          66    0.0024   -0.0048   -0.0018   -0.0247    0.0394    0.1144   -0.0977   -0.0353
          67    0.0159   -0.0114   -0.0040   -0.0036   -0.0004    0.0058   -0.0060   -0.0080
          68   -0.0356    0.0578    0.0360   -0.1152   -0.0021    0.0003    0.0184   -0.0645
          69    0.0611   -0.0306    0.0125   -0.0817   -0.0256   -0.0155    0.0158   -0.0247
          70    0.0350   -0.0391   -0.0204    0.0237   -0.0009    0.0010    0.0012    0.0068
          71    0.0164   -0.0525   -0.0554    0.1665    0.0160   -0.0176    0.0108    0.0657
          72   -0.0350    0.0217    0.0006    0.0770    0.0045   -0.0318    0.0182    0.0499


   Root No.      33        34        35        36        37        38        39        40

                33 A      34 A      35 A      36 A      37 A      38 A      39 A      40 A   

                1115.5    1116.5    1125.4    1145.6    1156.6    1161.5    1169.1    1180.8
  
           1    0.0114   -0.0045   -0.0278   -0.0027   -0.0058   -0.0062    0.0100    0.0026
           2    0.0081    0.0174   -0.0075    0.0129   -0.0276    0.0083   -0.0279   -0.0096
           3    0.0118   -0.0074   -0.0238    0.0136   -0.0095    0.0049   -0.0064   -0.0026
           4   -0.0130    0.0092    0.0140   -0.0020    0.0060   -0.0008   -0.0024   -0.0071
           5   -0.0005    0.0011    0.0010   -0.0024    0.0021   -0.0030    0.0034    0.0005
           6   -0.0012    0.0023   -0.0027    0.0008    0.0001    0.0001    0.0008   -0.0035
           7    0.0050    0.0084    0.0113   -0.0017   -0.0007   -0.0137    0.0004    0.0156
           8   -0.0042   -0.0262   -0.0223    0.0180    0.0073    0.0122   -0.0158    0.0000
           9   -0.0051   -0.0020   -0.0287    0.0126    0.0063    0.0213    0.0114   -0.0089
          10    0.0029    0.0024    0.0008    0.0038    0.0013   -0.0008    0.0014    0.0047
          11    0.0009    0.0035    0.0099   -0.0054   -0.0007   -0.0056    0.0011    0.0008
          12    0.0041    0.0058    0.0246   -0.0126   -0.0079   -0.0226   -0.0173    0.0087
          13   -0.0202   -0.0135   -0.0211   -0.0271    0.0021   -0.0011    0.0076   -0.0100
          14    0.0265   -0.0167   -0.0125    0.0063    0.0047   -0.0133    0.0041    0.0237
          15   -0.0110   -0.0231    0.0080   -0.0212    0.0022    0.0025   -0.0056   -0.0251
          16    0.0065   -0.0067   -0.0032    0.0011    0.0011   -0.0021    0.0006    0.0012
          17   -0.0209    0.0023    0.0073   -0.0135   -0.0051    0.0055   -0.0050   -0.0286
          18    0.0055   -0.0090   -0.0068   -0.0032    0.0038   -0.0020    0.0036    0.0086
          19    0.0072    0.0034    0.0161   -0.0052   -0.0028    0.0081   -0.0028    0.0063
          20    0.0065    0.0078    0.0188    0.0031   -0.0338   -0.0083    0.0218   -0.0016
          21    0.0095    0.0394   -0.0119    0.0379    0.0095   -0.0115    0.0039    0.0006
          22   -0.0019    0.0033   -0.0109    0.0057    0.0105   -0.0033   -0.0033   -0.0020
          23   -0.0002    0.0079   -0.0073    0.0106    0.0016   -0.0047    0.0017    0.0002
          24    0.0026   -0.0103    0.0151   -0.0116   -0.0163    0.0032    0.0063    0.0034
          25   -0.0124    0.0005   -0.0117    0.0042   -0.0171   -0.0142    0.0034   -0.0131
          26    0.0054    0.0169   -0.0204   -0.0033    0.0332   -0.0034   -0.0128   -0.0076
          27   -0.0017    0.0349   -0.0155   -0.0085    0.0116   -0.0063   -0.0040   -0.0119
          28    0.0066   -0.0052    0.0151   -0.0038    0.0022    0.0128   -0.0003    0.0135
          29   -0.0037   -0.0010    0.0122   -0.0070    0.0009   -0.0005    0.0073    0.0054
          30   -0.0192    0.0034    0.0139   -0.0137   -0.0026    0.0000    0.0037    0.0135
          31    0.0133    0.0082   -0.0021   -0.0167    0.0103    0.0121   -0.0097    0.0031
          32    0.0382    0.0042   -0.0087   -0.0379    0.0003    0.0145   -0.0113   -0.0001
          33    0.0123   -0.0337    0.0077    0.0096   -0.0147   -0.0011    0.0066    0.0036
          34   -0.0098   -0.0041    0.0022    0.0141   -0.0014   -0.0070    0.0048   -0.0015
          35   -0.0298   -0.0098    0.0073    0.0340   -0.0054   -0.0145    0.0115   -0.0010
          36    0.0005    0.0009   -0.0000   -0.0011   -0.0015    0.0005    0.0000    0.0001
          37    0.0282   -0.0504    0.0251    0.0202   -0.0013    0.0053   -0.0181    0.0238
          38   -0.0045    0.0096    0.0124   -0.0053    0.0063   -0.0032    0.0016   -0.0033
          39    0.0208   -0.0318    0.0068    0.0155   -0.0032    0.0050   -0.0110    0.0139
          40   -0.0060    0.0040    0.0057   -0.0044   -0.0052    0.0146    0.0022   -0.0264
          41    0.0068    0.0041    0.0042    0.0036    0.0061   -0.0164    0.0020    0.0324
          42    0.0207    0.0029    0.0076    0.0084    0.0057   -0.0506   -0.0232    0.0702
          43   -0.0059    0.0546    0.0210    0.0455   -0.0097    0.0180   -0.0117    0.0221
          44    0.0031   -0.0951   -0.0362   -0.0797    0.0013   -0.0307    0.0202   -0.0582
          45   -0.0099    0.0698    0.0298    0.0527    0.0013    0.0265   -0.0195    0.0358
          46    0.0068    0.0110    0.0110    0.0156   -0.0532   -0.0139    0.0331    0.0105
          47   -0.0002    0.0066   -0.0009    0.0073   -0.0076   -0.0050    0.0057    0.0013
          48   -0.0191   -0.0295   -0.0449   -0.0371    0.1147    0.0187   -0.0769   -0.0133
          49   -0.0119   -0.0204    0.0213   -0.0132    0.0141    0.0201   -0.0089    0.0110
          50   -0.0254   -0.0299    0.0310   -0.0087    0.0152    0.0224   -0.0077    0.0142
          51    0.0021   -0.0052    0.0079   -0.0104    0.0027    0.0083   -0.0031    0.0041
          52    0.0793   -0.1122   -0.0326    0.1080   -0.0251    0.0682   -0.0614    0.0004
          53    0.0826    0.0138    0.1278   -0.0253    0.1496   -0.0526    0.0992   -0.0628
          54    0.0874   -0.0471    0.0663    0.0264    0.1004   -0.0086    0.0548   -0.0381
          55    0.0755    0.0246    0.1011    0.1193    0.0358    0.0788   -0.0699   -0.1210
          56   -0.0539   -0.0087   -0.0816   -0.0421    0.0236    0.0456    0.2057    0.0457
          57    0.0122    0.0264    0.0041    0.0601    0.0548    0.1252    0.1548   -0.0789
          58   -0.0338    0.0347    0.0100   -0.0085   -0.1044    0.0826    0.0094   -0.0757
          59   -0.0077    0.0483   -0.0032    0.0246    0.0360    0.0797    0.0333    0.2195
          60   -0.0313    0.0443    0.0273    0.0077   -0.0584    0.1020    0.0114    0.0182
          61    0.0179    0.0128    0.0141   -0.0055   -0.0148    0.0059    0.0149   -0.0021
          62   -0.0809   -0.0390    0.0283    0.0242    0.0411    0.0220   -0.0986    0.0359
          63   -0.0551   -0.0298   -0.0468    0.0319    0.0568   -0.0376   -0.0613    0.0218
          64   -0.0515    0.0295   -0.0386    0.0118    0.0350   -0.0800   -0.0119   -0.0345
          65   -0.0717    0.0011    0.0396   -0.0441    0.0385    0.1016   -0.0466    0.0450
          66   -0.1118    0.0383    0.0161   -0.0378    0.0628    0.0406   -0.0522    0.0203
          67    0.0007    0.0144   -0.0133   -0.0007   -0.0019   -0.0102   -0.0021   -0.0107
          68    0.0876    0.0582   -0.0433   -0.1208   -0.0441    0.0488   -0.0278    0.0080
          69    0.0181    0.0193   -0.0380   -0.0061   -0.0467   -0.0289    0.0078   -0.0241
          70   -0.0140   -0.0175    0.0130   -0.0016   -0.0149    0.0066    0.0057    0.0079
          71   -0.0361   -0.0733    0.0652    0.0187    0.0273    0.0297   -0.0047    0.0247
          72   -0.0003   -0.0443    0.0308    0.0219    0.0320    0.0133   -0.0089    0.0094


   Root No.      41        42        43        44        45        46        47        48

                41 A      42 A      43 A      44 A      45 A      46 A      47 A      48 A   

                1195.7    1203.7    1216.5    1227.4    1233.3    1242.6    1249.5    1265.0
  
           1   -0.0233    0.0191    0.0218   -0.0177   -0.0255   -0.0375   -0.0224    0.0078
           2   -0.0059    0.0049    0.0081    0.0108   -0.0011    0.0223    0.0025   -0.0010
           3   -0.0013    0.0106    0.0008    0.0025   -0.0031    0.0030   -0.0022    0.0018
           4    0.0141   -0.0044   -0.0154    0.0053    0.0096    0.0103    0.0086   -0.0028
           5    0.0001    0.0015   -0.0004   -0.0013   -0.0002   -0.0035   -0.0003    0.0005
           6    0.0022    0.0029   -0.0022    0.0055    0.0003    0.0055    0.0004   -0.0009
           7   -0.0013    0.0031    0.0083    0.0079    0.0026    0.0111    0.0051    0.0013
           8    0.0099   -0.0135   -0.0196   -0.0225   -0.0110   -0.0138   -0.0110    0.0002
           9    0.0163   -0.0293   -0.0215   -0.0063   -0.0035   -0.0258   -0.0088    0.0020
          10    0.0021    0.0014    0.0016    0.0053    0.0064   -0.0028    0.0013   -0.0015
          11   -0.0040    0.0060    0.0048    0.0017    0.0005    0.0042    0.0021    0.0001
          12   -0.0064    0.0066    0.0073    0.0017   -0.0007    0.0079    0.0031    0.0000
          13    0.0033   -0.0166   -0.0216   -0.0160   -0.0162    0.0261    0.0049    0.0011
          14   -0.0060    0.0006    0.0109    0.0211    0.0068   -0.0261    0.0021    0.0047
          15   -0.0017    0.0075    0.0026   -0.0110   -0.0023    0.0138   -0.0038   -0.0033
          16   -0.0023    0.0002    0.0028    0.0035    0.0009   -0.0047    0.0008    0.0012
          17    0.0025   -0.0048    0.0005   -0.0032   -0.0006    0.0079    0.0004   -0.0012
          18   -0.0037    0.0025   -0.0018   -0.0008   -0.0015    0.0025    0.0014    0.0013
          19   -0.0130    0.0037   -0.0062    0.0127    0.0037   -0.0042   -0.0141   -0.0041
          20    0.0116    0.0024   -0.0037   -0.0068   -0.0027    0.0088   -0.0116   -0.0062
          21    0.0025   -0.0184    0.0084    0.0106   -0.0287    0.0029    0.0291    0.0215
          22    0.0087   -0.0025    0.0131   -0.0033    0.0007    0.0014    0.0029   -0.0001
          23    0.0091   -0.0016    0.0064   -0.0030   -0.0030    0.0011    0.0036    0.0034
          24   -0.0056    0.0057   -0.0125    0.0011    0.0038   -0.0014   -0.0098   -0.0033
          25    0.0107    0.0318   -0.0268   -0.0167    0.0167   -0.0125    0.0324   -0.0001
          26   -0.0198   -0.0143   -0.0029    0.0088    0.0041    0.0043   -0.0046   -0.0055
          27   -0.0168   -0.0144   -0.0068   -0.0158    0.0239    0.0068    0.0074   -0.0324
          28   -0.0123   -0.0270    0.0204   -0.0042    0.0019    0.0061   -0.0012   -0.0008
          29   -0.0024   -0.0041    0.0056   -0.0047    0.0017   -0.0032    0.0031    0.0005
          30   -0.0086   -0.0072    0.0147   -0.0030   -0.0041   -0.0039   -0.0032    0.0028
          31    0.0045   -0.0024    0.0044    0.0073   -0.0049    0.0031   -0.0071    0.0067
          32    0.0057    0.0087   -0.0073    0.0039    0.0064    0.0064   -0.0235   -0.0175
          33    0.0067    0.0106   -0.0010    0.0081   -0.0166   -0.0075    0.0026   -0.0223
          34   -0.0048   -0.0032   -0.0009   -0.0007    0.0015    0.0017   -0.0037   -0.0068
          35   -0.0074   -0.0060    0.0019   -0.0027   -0.0003   -0.0004    0.0016   -0.0013
          36    0.0016    0.0014   -0.0002   -0.0005    0.0001   -0.0002    0.0007    0.0021
          37    0.0047   -0.0242   -0.0055   -0.0393    0.0090   -0.0355    0.0087    0.0054
          38    0.0015    0.0003   -0.0013   -0.0026   -0.0028   -0.0023   -0.0016   -0.0002
          39    0.0024   -0.0117   -0.0021   -0.0166    0.0053   -0.0139    0.0042    0.0026
          40   -0.0184    0.0104    0.0038   -0.0210   -0.0284    0.0152   -0.0050    0.0069
          41    0.0157   -0.0056    0.0030    0.0280    0.0336   -0.0105    0.0081   -0.0079
          42    0.0418   -0.0227   -0.0063    0.0520    0.0666   -0.0295    0.0145   -0.0158
          43    0.0201   -0.0035   -0.0076   -0.0001    0.0100   -0.0224   -0.0140   -0.0073
          44   -0.0283   -0.0009    0.0205    0.0126   -0.0110    0.0296    0.0242    0.0135
          45    0.0203   -0.0006   -0.0151   -0.0100    0.0085   -0.0206   -0.0186   -0.0106
          46    0.0422    0.0052   -0.0030   -0.0172   -0.0089    0.0116   -0.0162    0.0093
          47    0.0134    0.0007    0.0047   -0.0061   -0.0006    0.0037   -0.0032    0.0000
          48   -0.0657   -0.0092    0.0253    0.0310    0.0305   -0.0221    0.0304   -0.0245
          49    0.0082   -0.0022    0.0130    0.0036   -0.0106   -0.0074    0.0162    0.0382
          50    0.0089   -0.0038    0.0176    0.0020   -0.0116   -0.0099    0.0216    0.0559
          51    0.0062    0.0015    0.0043    0.0010   -0.0035   -0.0032    0.0091    0.0218
          52    0.0520   -0.0238   -0.0379    0.0868    0.0506    0.1507    0.0432   -0.0214
          53    0.0603   -0.0139   -0.0704   -0.0272    0.0089   -0.0821   -0.0027    0.0033
          54    0.0674   -0.0172   -0.0690    0.0172    0.0308    0.0024    0.0180   -0.0056
          55   -0.0425    0.1051    0.0357   -0.0751   -0.0388    0.0093   -0.0252   -0.0029
          56   -0.0201    0.0542    0.0477    0.0827    0.0525    0.0601    0.0414   -0.0031
          57   -0.0482    0.1265    0.0691    0.0196    0.0223    0.0361    0.0124   -0.0051
          58    0.0205   -0.0834    0.0087    0.0959    0.0732   -0.1459   -0.0341   -0.0076
          59   -0.0032    0.0622   -0.1184   -0.1054   -0.0140    0.0760   -0.0449   -0.0276
          60    0.0131   -0.0170   -0.0330    0.0153    0.0487   -0.0671   -0.0487   -0.0207
          61   -0.0163   -0.0169   -0.0187    0.0142   -0.0201    0.0064   -0.0044    0.0074
          62   -0.1295    0.1227   -0.1209    0.0488    0.0555   -0.0945    0.0828    0.0049
          63    0.1497    0.0976    0.1722   -0.0710    0.1275   -0.0177   -0.0598   -0.0704
          64    0.0463    0.1095   -0.0831    0.1319   -0.0741    0.0136   -0.1421    0.0223
          65    0.0539   -0.0135    0.0585   -0.0169   -0.0227   -0.0154    0.0689    0.0436
          66    0.0884    0.0574    0.0033    0.0850   -0.0813    0.0049   -0.0585    0.0348
          67   -0.0120    0.0012   -0.0155   -0.0175    0.0538    0.0203   -0.0384    0.1010
          68    0.0900    0.0819    0.0001   -0.0099   -0.0436   -0.0579    0.1446    0.0902
          69   -0.0024    0.0374   -0.0389   -0.0527    0.1011    0.0123   -0.0106    0.2352
          70    0.0326    0.0256    0.0068    0.0131   -0.0695   -0.0406    0.0853   -0.1325
          71    0.0233   -0.0077    0.0319    0.0215   -0.0424   -0.0146    0.0420    0.0972
          72   -0.0166   -0.0303    0.0151    0.0072    0.0372    0.0318   -0.0625    0.2138


   Root No.      49        50        51        52        53        54        55        56

                49 A      50 A      51 A      52 A      53 A      54 A      55 A      56 A   

                1277.7    1335.2    1340.8    1344.1    1350.9    1377.5    2522.2    2535.8
  
           1   -0.0002    0.0182   -0.0189   -0.0120   -0.0127    0.0027    0.0004    0.0001
           2   -0.0028   -0.0096    0.0067    0.0043    0.0070    0.0005    0.0002    0.0001
           3    0.0009   -0.0138    0.0294    0.0195    0.0312    0.0016    0.0004   -0.0004
           4    0.0018   -0.0024    0.0071    0.0052    0.0069    0.0003    0.0004    0.0011
           5    0.0010   -0.0015    0.0017    0.0010    0.0007   -0.0001   -0.0000    0.0002
           6   -0.0022    0.0080   -0.0187   -0.0115   -0.0169    0.0003   -0.0011   -0.0021
           7    0.0015   -0.0708    0.0065   -0.0017   -0.0255   -0.0065    0.0007    0.0029
           8   -0.0026    0.0102   -0.0009   -0.0021   -0.0069    0.0023    0.0001    0.0008
           9   -0.0006   -0.0307    0.0012   -0.0030   -0.0167   -0.0010    0.0001    0.0027
          10   -0.0001    0.0301    0.0017    0.0018    0.0065    0.0025    0.0014    0.0138
          11    0.0007   -0.0027   -0.0004   -0.0002   -0.0012   -0.0006   -0.0000    0.0004
          12    0.0007   -0.0002   -0.0002   -0.0004   -0.0021   -0.0001    0.0005    0.0058
          13   -0.0006    0.0221   -0.0165   -0.0013    0.0300    0.0027   -0.0001   -0.0018
          14    0.0052   -0.0249   -0.0313   -0.0081    0.0266   -0.0049    0.0021   -0.0066
          15   -0.0050   -0.0128   -0.0293   -0.0064    0.0337   -0.0087    0.0010   -0.0023
          16    0.0016    0.0041    0.0060    0.0012   -0.0068   -0.0008    0.0009   -0.0072
          17   -0.0010    0.0039    0.0054    0.0020   -0.0030   -0.0064    0.0020   -0.0202
          18    0.0014    0.0086    0.0141    0.0032   -0.0147   -0.0053    0.0033   -0.0200
          19   -0.0124    0.0013    0.0084    0.0016   -0.0065   -0.0112   -0.0015   -0.0000
          20   -0.0090    0.0007    0.0076   -0.0008   -0.0066    0.0959   -0.0100   -0.0000
          21    0.0298    0.0127    0.0092    0.0064   -0.0094    0.0061    0.0027    0.0005
          22    0.0028   -0.0004    0.0005   -0.0002   -0.0004    0.0117    0.0053    0.0002
          23    0.0061    0.0023   -0.0015    0.0020    0.0004   -0.0328   -0.0401   -0.0018
          24   -0.0089   -0.0001    0.0001   -0.0003   -0.0002   -0.0146   -0.0009    0.0001
          25    0.0198   -0.0029   -0.0072   -0.0020   -0.0041    0.0146    0.0001    0.0002
          26   -0.0358    0.0011    0.0060    0.0008    0.0031   -0.0318    0.0008   -0.0000
          27   -0.0219   -0.0015   -0.0000    0.0008   -0.0002   -0.0144   -0.0001    0.0001
          28   -0.0048    0.0011    0.0008   -0.0016   -0.0004   -0.0039   -0.0003   -0.0001
          29    0.0037    0.0045   -0.0052   -0.0035   -0.0047   -0.0003    0.0000   -0.0001
          30    0.0013    0.0079   -0.0071   -0.0067   -0.0072   -0.0003   -0.0003   -0.0001
          31   -0.0045    0.0002   -0.0059    0.0246   -0.0023   -0.0005    0.0001   -0.0001
          32    0.0513   -0.0007    0.0015   -0.0125    0.0019   -0.0030   -0.0005   -0.0002
          33    0.0086   -0.0007   -0.0066    0.0197   -0.0025    0.0039   -0.0001   -0.0000
          34    0.0073   -0.0002    0.0087   -0.0254    0.0039   -0.0015    0.0014    0.0007
          35   -0.0046    0.0000   -0.0028    0.0087   -0.0015    0.0035   -0.0010   -0.0005
          36    0.0008   -0.0002    0.0049   -0.0146    0.0023   -0.0003    0.0008    0.0004
          37    0.0253   -0.0752    0.1728    0.1071    0.1564   -0.0002   -0.0107   -0.0227
          38    0.0000   -0.0027    0.0005   -0.0013   -0.0016    0.0003   -0.0005   -0.0016
          39    0.0108   -0.0410    0.0874    0.0538    0.0775   -0.0009    0.0195    0.0388
          40    0.0015   -0.1302   -0.0002   -0.0057   -0.0330   -0.0088   -0.0268   -0.2456
          41   -0.0016    0.1330    0.0008    0.0051    0.0300    0.0098   -0.0020   -0.0192
          42   -0.0022    0.2819    0.0060    0.0135    0.0633    0.0211   -0.0133   -0.1152
          43   -0.0105   -0.0479   -0.0819   -0.0194    0.0803    0.0168   -0.0148    0.1181
          44    0.0195    0.0752    0.1292    0.0322   -0.1249   -0.0451   -0.0464    0.3821
          45   -0.0153   -0.0588   -0.1038   -0.0256    0.1022    0.0301   -0.0422    0.3536
          46    0.0026    0.0128   -0.0067    0.0099    0.0036   -0.2039   -0.0840   -0.0043
          47    0.0008    0.0032    0.0002    0.0016   -0.0015   -0.0212    0.7322    0.0334
          48   -0.0087   -0.0310    0.0129   -0.0198   -0.0051    0.4132   -0.0289   -0.0024
          49   -0.0506    0.0017   -0.0596    0.1731   -0.0273    0.0126   -0.0246   -0.0118
          50   -0.0699    0.0020   -0.0876    0.2528   -0.0397    0.0209    0.0225    0.0107
          51   -0.0262    0.0006   -0.0153    0.0452   -0.0073    0.0042   -0.0144   -0.0068
          52   -0.0251    0.0103   -0.0853   -0.0520   -0.0819   -0.0014    0.0008    0.0007
          53    0.0109   -0.0156   -0.0037   -0.0028   -0.0201   -0.0030    0.0012    0.0013
          54    0.0009   -0.0212   -0.0079   -0.0038   -0.0185   -0.0027   -0.0022   -0.0010
          55   -0.0057    0.0814    0.0013   -0.0002   -0.0013    0.0002   -0.0035    0.0026
          56    0.0078   -0.0420    0.0071    0.0126    0.0387   -0.0034   -0.0026    0.0001
          57    0.0027    0.0513    0.0076    0.0122    0.0401   -0.0020    0.0037   -0.0049
          58   -0.0119    0.0164    0.0236    0.0028   -0.0244   -0.0006    0.0021    0.0099
          59   -0.0438    0.0298    0.0424    0.0041   -0.0441    0.0319   -0.0029    0.0128
          60   -0.0303    0.0171    0.0309    0.0027   -0.0331    0.0087   -0.0047   -0.0176
          61   -0.0016    0.0069    0.0003    0.0009    0.0053    0.0077    0.0224    0.0009
          62    0.0465   -0.0164    0.0009    0.0037   -0.0282   -0.0878    0.0053    0.0006
          63   -0.0442   -0.0271    0.0279    0.0043   -0.0456   -0.0355   -0.0044    0.0003
          64   -0.0799   -0.0057    0.0287    0.0147    0.0125    0.0229   -0.0015    0.0003
          65    0.1509    0.0070   -0.0105   -0.0155   -0.0038   -0.0084    0.0014    0.0006
          66    0.0887    0.0026    0.0112    0.0020    0.0063    0.0012    0.0006   -0.0006
          67    0.0430    0.0004   -0.0085    0.0082   -0.0035    0.0124   -0.0016    0.0007
          68   -0.1649   -0.0012    0.0115   -0.0256    0.0032    0.0058    0.0003    0.0004
          69    0.0210    0.0001   -0.0087   -0.0181   -0.0042    0.0280    0.0006   -0.0003
          70   -0.0661   -0.0023    0.0218   -0.0491    0.0079   -0.0110    0.0023    0.0013
          71   -0.1260   -0.0003    0.0788   -0.2051    0.0377   -0.0190   -0.0016   -0.0009
          72   -0.0297    0.0016    0.0136   -0.0284    0.0100    0.0049    0.0014    0.0010


   Root No.      57        58        59        60        61        62        63        64

                57 A      58 A      59 A      60 A      61 A      62 A      63 A      64 A   

                2539.6    2545.2    2552.4    2657.6    2660.5    2665.4    2669.9    2672.7
  
           1    0.0027    0.0041   -0.0005   -0.0003    0.0007    0.0039    0.0037   -0.0058
           2   -0.0013   -0.0006   -0.0000   -0.0004    0.0006    0.0055    0.0057   -0.0114
           3   -0.0006   -0.0023    0.0008    0.0009   -0.0015   -0.0103   -0.0093    0.0167
           4    0.0047    0.0109   -0.0019   -0.0003    0.0001    0.0008    0.0008   -0.0020
           5    0.0002    0.0007   -0.0001   -0.0000    0.0000    0.0002    0.0002   -0.0004
           6   -0.0104   -0.0217    0.0034    0.0003   -0.0001   -0.0004   -0.0006    0.0015
           7   -0.0036    0.0002   -0.0001    0.0008   -0.0015   -0.0076   -0.0056    0.0006
           8    0.0002   -0.0013    0.0004    0.0010   -0.0025   -0.0081   -0.0048   -0.0028
           9   -0.0041    0.0022   -0.0007   -0.0012    0.0030    0.0091    0.0055    0.0019
          10   -0.0208    0.0087   -0.0028    0.0000   -0.0001   -0.0009   -0.0007   -0.0001
          11   -0.0012    0.0007   -0.0002   -0.0000    0.0000   -0.0001   -0.0001   -0.0000
          12   -0.0091    0.0041   -0.0013   -0.0001    0.0003    0.0005    0.0002    0.0002
          13   -0.0001    0.0004   -0.0002   -0.0010    0.0022    0.0060   -0.0010    0.0127
          14   -0.0021    0.0015   -0.0006   -0.0007    0.0012    0.0039   -0.0002    0.0073
          15   -0.0007    0.0003    0.0001    0.0022   -0.0091   -0.0100    0.0016   -0.0172
          16   -0.0025    0.0015   -0.0007   -0.0000   -0.0001   -0.0001   -0.0000   -0.0001
          17   -0.0073    0.0048   -0.0020   -0.0001    0.0004    0.0001   -0.0004    0.0007
          18   -0.0070    0.0044   -0.0018    0.0001   -0.0004   -0.0009   -0.0002   -0.0013
          19   -0.0001    0.0002   -0.0005    0.0030   -0.0340    0.0025    0.0089    0.0074
          20   -0.0002    0.0002   -0.0005    0.0008   -0.0010   -0.0012    0.0027    0.0008
          21    0.0002   -0.0000    0.0000    0.0003   -0.0060   -0.0005    0.0007   -0.0012
          22    0.0002   -0.0001    0.0002    0.0001   -0.0020    0.0001    0.0005    0.0003
          23   -0.0013    0.0015   -0.0021   -0.0002   -0.0007   -0.0002   -0.0003   -0.0003
          24    0.0001   -0.0001    0.0000   -0.0002    0.0017    0.0001   -0.0002    0.0001
          25    0.0000    0.0004   -0.0001    0.0031    0.0029   -0.0059    0.0122    0.0044
          26   -0.0001   -0.0002   -0.0011    0.0058    0.0094   -0.0073    0.0134    0.0042
          27   -0.0000   -0.0001    0.0011   -0.0051   -0.0073    0.0071   -0.0139   -0.0043
          28    0.0000    0.0001   -0.0003    0.0007    0.0013   -0.0008    0.0013    0.0004
          29    0.0004    0.0002   -0.0000    0.0003    0.0001   -0.0001    0.0005    0.0002
          30    0.0003    0.0001   -0.0003    0.0004    0.0001   -0.0004   -0.0008    0.0009
          31   -0.0003   -0.0004    0.0027   -0.0377   -0.0009   -0.0066    0.0081    0.0019
          32   -0.0003    0.0008    0.0049    0.0039   -0.0006    0.0014   -0.0019   -0.0005
          33    0.0000    0.0001   -0.0015   -0.0030    0.0002   -0.0006    0.0002   -0.0001
          34    0.0011   -0.0033   -0.0220   -0.0034   -0.0002   -0.0005    0.0003    0.0000
          35   -0.0009    0.0027    0.0190    0.0023   -0.0001    0.0005   -0.0002   -0.0000
          36    0.0006   -0.0019   -0.0127   -0.0014   -0.0001   -0.0001   -0.0000   -0.0000
          37   -0.1080   -0.2285    0.0371    0.0034   -0.0003   -0.0018   -0.0030    0.0118
          38   -0.0083   -0.0179    0.0024    0.0000    0.0001    0.0007    0.0006   -0.0000
          39    0.1869    0.3934   -0.0630   -0.0062    0.0002    0.0011    0.0037   -0.0171
          40    0.3729   -0.1565    0.0491   -0.0004    0.0021    0.0149    0.0110    0.0013
          41    0.0299   -0.0140    0.0042   -0.0002    0.0004    0.0021    0.0016   -0.0003
          42    0.1740   -0.0734    0.0229   -0.0004    0.0014    0.0080    0.0060    0.0002
          43    0.0411   -0.0263    0.0110    0.0001    0.0007    0.0025    0.0011    0.0027
          44    0.1358   -0.0876    0.0359   -0.0006    0.0052    0.0113    0.0036    0.0121
          45    0.1254   -0.0806    0.0334   -0.0002    0.0032    0.0090    0.0036    0.0096
          46   -0.0034    0.0033   -0.0042   -0.0001    0.0004   -0.0002   -0.0007   -0.0007
          47    0.0248   -0.0266    0.0369    0.0037   -0.0135    0.0064    0.0063    0.0062
          48   -0.0019    0.0020   -0.0017    0.0001    0.0027   -0.0007    0.0001    0.0001
          49   -0.0201    0.0583    0.3972    0.0390    0.0022    0.0052   -0.0006    0.0007
          50    0.0180   -0.0530   -0.3595   -0.0393   -0.0025   -0.0052    0.0008   -0.0005
          51   -0.0114    0.0340    0.2263    0.0217    0.0013    0.0028   -0.0002    0.0004
          52    0.0055    0.0066   -0.0000    0.0045   -0.0086   -0.0548   -0.0506    0.0856
          53    0.0120    0.0153   -0.0008    0.0076   -0.0148   -0.0954   -0.0891    0.1537
          54   -0.0173   -0.0216    0.0006   -0.0115    0.0226    0.1429    0.1333   -0.2263
          55   -0.0109    0.0142   -0.0045   -0.0146    0.0356    0.1166    0.0717    0.0195
          56   -0.0114    0.0139   -0.0046   -0.0158    0.0384    0.1253    0.0761    0.0251
          57    0.0184   -0.0175    0.0059    0.0172   -0.0419   -0.1364   -0.0828   -0.0256
          58    0.0049   -0.0053    0.0032    0.0191   -0.0660   -0.0993    0.0111   -0.1748
          59    0.0048   -0.0047    0.0024    0.0118   -0.0404   -0.0613    0.0062   -0.1065
          60   -0.0074    0.0078   -0.0050   -0.0270    0.0920    0.1413   -0.0138    0.2449
          61    0.0033   -0.0045    0.0062   -0.0426    0.4828   -0.0310   -0.1285   -0.1016
          62    0.0005   -0.0004    0.0007   -0.0029    0.0342   -0.0024   -0.0084   -0.0068
          63    0.0005   -0.0007    0.0006   -0.0052    0.0599   -0.0037   -0.0160   -0.0131
          64    0.0001   -0.0005    0.0080   -0.0656   -0.0834    0.0822   -0.1612   -0.0521
          65    0.0005   -0.0001    0.0107   -0.0783   -0.0995    0.0994   -0.1951   -0.0635
          66   -0.0006    0.0006   -0.0089    0.0776    0.1003   -0.1005    0.1959    0.0640
          67    0.0036    0.0009   -0.0497    0.3095    0.0237    0.0393   -0.0445   -0.0098
          68    0.0011   -0.0014   -0.0183    0.0618    0.0049    0.0076   -0.0081   -0.0017
          69   -0.0020   -0.0004    0.0258   -0.1531   -0.0104   -0.0212    0.0250    0.0059
          70    0.0024   -0.0051   -0.0335    0.1757   -0.0082    0.0428   -0.0536   -0.0136
          71   -0.0016    0.0029    0.0217   -0.1081    0.0052   -0.0260    0.0327    0.0082
          72    0.0022   -0.0047   -0.0331    0.1716   -0.0057    0.0400   -0.0501   -0.0127


   Root No.      65        66

                65 A      66 A   

                2686.0    2720.4
  
           1    0.0045    0.0000
           2    0.0109    0.0002
           3   -0.0133    0.0001
           4    0.0016   -0.0002
           5    0.0004   -0.0000
           6   -0.0014    0.0002
           7    0.0150   -0.0002
           8    0.0159   -0.0002
           9   -0.0160    0.0003
          10    0.0011   -0.0001
          11    0.0002   -0.0000
          12   -0.0012   -0.0000
          13    0.0112    0.0001
          14    0.0056    0.0000
          15   -0.0126   -0.0000
          16    0.0001   -0.0000
          17    0.0009   -0.0001
          18   -0.0007   -0.0001
          19    0.0023    0.0007
          20    0.0001   -0.0002
          21   -0.0011    0.0002
          22    0.0001    0.0001
          23    0.0001   -0.0001
          24    0.0001    0.0001
          25    0.0012   -0.0019
          26    0.0012   -0.0014
          27   -0.0013    0.0073
          28    0.0001   -0.0006
          29   -0.0000   -0.0002
          30   -0.0010   -0.0001
          31    0.0007   -0.0010
          32   -0.0002   -0.0165
          33    0.0002    0.0307
          34   -0.0000   -0.0004
          35    0.0000   -0.0037
          36   -0.0000    0.0011
          37   -0.0117    0.0030
          38   -0.0005    0.0003
          39    0.0176   -0.0050
          40   -0.0139    0.0019
          41   -0.0022    0.0003
          42   -0.0082    0.0009
          43    0.0007    0.0005
          44    0.0028    0.0014
          45    0.0024    0.0014
          46   -0.0006   -0.0004
          47   -0.0008    0.0033
          48    0.0005   -0.0007
          49    0.0007   -0.0002
          50   -0.0007    0.0016
          51    0.0006   -0.0010
          52   -0.0658   -0.0006
          53   -0.1221   -0.0011
          54    0.1771    0.0011
          55   -0.1912    0.0034
          56   -0.2064    0.0036
          57    0.2196   -0.0039
          58   -0.1277   -0.0008
          59   -0.0757   -0.0004
          60    0.1745    0.0011
          61   -0.0304   -0.0107
          62   -0.0022   -0.0009
          63   -0.0046   -0.0014
          64   -0.0148    0.0297
          65   -0.0178    0.0340
          66    0.0176   -0.0391
          67   -0.0021    0.3503
          68   -0.0005    0.0600
          69    0.0014   -0.1512
          70   -0.0062   -0.3288
          71    0.0036    0.1820
          72   -0.0055   -0.2810


           MASS-WEIGHTED COORDINATE ANALYSIS (NORMAL COORDINATES)


   Root No.       1         2         3         4         5         6         7         8

                 1 A       2 A       3 A       4 A       5 A       6 A       7 A       8 A   

                  34.4      48.4      71.6      97.1     174.0     220.1     241.8     250.4
  
           1   -0.1038   -0.0530   -0.0484    0.0421   -0.0201   -0.1086    0.0307   -0.0853
           2   -0.0732   -0.0233    0.0046    0.0228    0.0417   -0.0543   -0.1328   -0.0911
           3   -0.0103    0.1124    0.0216    0.0971   -0.0376   -0.0447    0.0428    0.0114
           4   -0.1219   -0.0659   -0.0517    0.0669   -0.0309   -0.1195    0.0384   -0.0931
           5   -0.2460   -0.1892    0.0184    0.1968    0.1477    0.1797    0.0291    0.5969
           6    0.0305    0.3700   -0.2026   -0.3726    0.1460    0.0198   -0.0936    0.2601
           7    0.0271    0.0588   -0.0387   -0.0074   -0.0410   -0.1128   -0.1133   -0.1198
           8   -0.0262    0.0150    0.0086   -0.0003    0.0449   -0.0581   -0.2062   -0.1459
           9   -0.0380   -0.1114   -0.1115    0.0718    0.0272    0.0015    0.0454   -0.0508
          10    0.1384    0.2808    0.1396   -0.0869    0.1147    0.4094   -0.3370    0.1761
          11    0.0225    0.3695    0.2468   -0.0593    0.0327   -0.2348    0.3812   -0.1228
          12   -0.0723   -0.2869   -0.2403    0.1194    0.0243    0.0252   -0.1987   -0.1076
          13    0.0182    0.0225   -0.0726    0.0176   -0.0492   -0.1182   -0.1080   -0.0786
          14    0.0790   -0.0408   -0.0803    0.0735    0.0225    0.0264   -0.1546   -0.0163
          15    0.0148    0.0433    0.0350    0.0106    0.0819    0.0797    0.0764   -0.0425
          16    0.1271   -0.0712   -0.2974    0.2096   -0.0725   -0.1205    0.4374    0.2689
          17    0.1170   -0.0826   -0.1021    0.0921   -0.0512   -0.0429   -0.0194    0.1577
          18   -0.0094    0.0259    0.3146   -0.2512   -0.2906   -0.3822   -0.0291    0.2958
          19   -0.1007   -0.0620    0.0588   -0.0491    0.0165   -0.0394   -0.0619    0.0107
          20    0.0660   -0.1153    0.0719   -0.0566   -0.1244   -0.0028   -0.0809    0.0239
          21    0.0486    0.1048   -0.0798    0.1121    0.1572    0.0420    0.0443   -0.0958
          22   -0.1829   -0.3307    0.5187   -0.1179    0.3907   -0.0066    0.0186   -0.0795
          23    0.0303   -0.0837    0.1090   -0.1895   -0.2802    0.3697    0.2708   -0.0833
          24   -0.0031    0.0293    0.1272    0.0160    0.2509    0.3080    0.3292   -0.2199
          25   -0.1563    0.0604   -0.1180   -0.1028   -0.0005   -0.0031    0.0365    0.0172
          26    0.0400   -0.0628   -0.0048   -0.0753   -0.1289    0.0280   -0.0456   -0.0140
          27    0.0125    0.0086   -0.0058    0.1261    0.1353   -0.0984   -0.0450   -0.0363
          28   -0.1647    0.0437   -0.2073   -0.2042    0.0992   -0.0338    0.0597    0.0375
          29   -0.0236   -0.0457   -0.2676   -0.3255    0.1151   -0.0988    0.0310   -0.2233
          30   -0.0331    0.1102    0.2120    0.3892   -0.1346   -0.0186   -0.0920    0.0460
          31   -0.2081    0.1872    0.0033    0.1239   -0.3614    0.1869   -0.0226   -0.0990
          32    0.0837    0.0991    0.0010    0.1246    0.0921   -0.0678   -0.0675   -0.0240
[...]
 FORCE CONSTANT      0.2975

 VIBRATION         29   29A           ATOM PAIR      ENERGY CONTRIBUTION    RADIAL
 FREQUENCY          1072.52         C  3 -- O  4         +11.5% ( 50.9%)     79.8%
 TRANSITION DIPOLE   0.8832         C  3 -- C  5         +11.1% ( 49.9%)     82.7%
 TRAVEL (Ang.)       0.2701         O  4 -- H 14         +10.8% ( 49.4%)      0.5%
 REDUCED MASS        0.8615         C  1 -- C  3         +10.0% ( 47.4%)     52.0%
 EFFECTIVE MASS      9.3656
 FORCE CONSTANT      0.5839

 VIBRATION         30   30A           ATOM PAIR      ENERGY CONTRIBUTION    RADIAL
 FREQUENCY          1079.68         C  5 -- O  6         +14.2% ( 58.4%)     99.4%
 TRANSITION DIPOLE   1.1884         C  5 -- C  7          +8.5% ( 45.2%)     75.8%
 TRAVEL (Ang.)       0.2446         C  9 -- C 11          +7.9% ( 43.6%)     91.4%
 REDUCED MASS        1.0442         O  6 -- H 15          +7.5% ( 42.4%)      0.0%
 EFFECTIVE MASS     10.0840
 FORCE CONSTANT      0.7172

 VIBRATION         31   31A           ATOM PAIR      ENERGY CONTRIBUTION    RADIAL
 FREQUENCY          1085.37         C  1 -- O  2         +12.7% ( 50.8%)     89.1%
 TRANSITION DIPOLE   1.3996         C  1 -- H 18         +11.3% ( 48.0%)      9.9%
 TRAVEL (Ang.)       0.2830         C  1 -- C  3          +9.6% ( 44.2%)      8.0%
 REDUCED MASS        0.7756         C  1 -- O 10          +9.0% ( 42.8%)     51.5%
 EFFECTIVE MASS      8.7677
 FORCE CONSTANT      0.5383

 VIBRATION         32   32A           ATOM PAIR      ENERGY CONTRIBUTION    RADIAL
 FREQUENCY          1100.84         C  1 -- C  3         +18.4% ( 64.1%)     79.7%
 TRANSITION DIPOLE   0.8251         C  1 -- O 10         +14.6% ( 57.2%)     82.5%
 TRAVEL (Ang.)       0.2184         C  1 -- H 18         +10.5% ( 48.4%)      6.5%
 REDUCED MASS        1.2840         C  1 -- O  2          +8.2% ( 42.8%)      1.7%
 EFFECTIVE MASS      8.6585
 FORCE CONSTANT      0.9168

 VIBRATION         33   33A           ATOM PAIR      ENERGY CONTRIBUTION    RADIAL
 FREQUENCY          1115.54         C 11 -- O 12         +14.2% ( 49.9%)     95.6%
 TRANSITION DIPOLE   0.8519         C  5 -- O  6          +8.8% ( 39.3%)     95.1%
 TRAVEL (Ang.)       0.3053         C  9 -- H 22          +8.0% ( 37.6%)      0.1%
 REDUCED MASS        0.6487         C 11 -- H 23          +7.5% ( 36.4%)     32.5%
 EFFECTIVE MASS      7.4817
 FORCE CONSTANT      0.4756

 VIBRATION         34   34A           ATOM PAIR      ENERGY CONTRIBUTION    RADIAL
 FREQUENCY          1116.46         C  9 -- C 11         +10.0% ( 48.2%)     95.8%
 TRANSITION DIPOLE   0.3266         C  5 -- C  7         +10.0% ( 48.0%)     97.7%
 TRAVEL (Ang.)       0.2997         C  7 -- C  9          +7.7% ( 42.1%)     79.3%
 REDUCED MASS        0.6724         O  6 -- H 15          +6.7% ( 39.4%)      5.2%
 EFFECTIVE MASS      7.8270
 FORCE CONSTANT      0.4938

 VIBRATION         35   35A           ATOM PAIR      ENERGY CONTRIBUTION    RADIAL
 FREQUENCY          1125.40         C  1 -- H 18         +11.0% ( 47.3%)      0.6%
 TRANSITION DIPOLE   1.2630         C  3 -- O  4          +9.2% ( 43.2%)     93.2%
 TRAVEL (Ang.)       0.3152         C  3 -- H 19          +8.2% ( 41.0%)      8.0%
 REDUCED MASS        0.6031         C  1 -- C  3          +8.2% ( 40.8%)     41.7%
 EFFECTIVE MASS      8.5215
 FORCE CONSTANT      0.4500

 VIBRATION         36   36A           ATOM PAIR      ENERGY CONTRIBUTION    RADIAL
 FREQUENCY          1145.57         C 11 -- O 12         +12.9% ( 49.7%)     95.1%
 TRANSITION DIPOLE   0.8220         C  5 -- C  7          +9.1% ( 41.8%)     70.4%
 TRAVEL (Ang.)       0.2790         C 11 -- H 23          +7.4% ( 37.8%)     96.5%
 REDUCED MASS        0.7562         C  3 -- H 19          +7.0% ( 36.8%)      0.1%
 EFFECTIVE MASS      8.3168
 FORCE CONSTANT      0.5847

 VIBRATION         37   37A           ATOM PAIR      ENERGY CONTRIBUTION    RADIAL
 FREQUENCY          1156.62         C  1 -- H 18         +16.2% ( 54.3%)      0.8%
 TRANSITION DIPOLE   0.5569         C  7 -- C  9         +12.7% ( 48.0%)     95.4%
 TRAVEL (Ang.)       0.3444         O  8 -- H 16          +9.3% ( 41.0%)      1.4%
 REDUCED MASS        0.4915         C  9 -- C 11          +7.3% ( 36.4%)     57.9%
 EFFECTIVE MASS      5.4615
 FORCE CONSTANT      0.3874

 VIBRATION         38   38A           ATOM PAIR      ENERGY CONTRIBUTION    RADIAL
 FREQUENCY          1161.53         C  3 -- H 19         +15.7% ( 46.5%)      7.2%
 TRANSITION DIPOLE   0.4619         C  5 -- H 20         +13.7% ( 43.4%)      0.8%
 TRAVEL (Ang.)       0.4431         C  9 -- H 22         +11.1% ( 39.0%)      1.5%
 REDUCED MASS        0.2957         C  3 -- O  4          +9.7% ( 36.5%)     91.0%
 EFFECTIVE MASS      4.7476
 FORCE CONSTANT      0.2351

 VIBRATION         39   39A           ATOM PAIR      ENERGY CONTRIBUTION    RADIAL
 FREQUENCY          1169.15         C  3 -- H 19         +33.6% ( 67.8%)      1.9%
 TRANSITION DIPOLE   0.4241         C  1 -- H 18         +12.7% ( 41.6%)      0.6%
 TRAVEL (Ang.)       0.4074         C  7 -- H 21          +9.5% ( 36.0%)      0.0%
 REDUCED MASS        0.3475         O  8 -- H 16          +4.4% ( 24.5%)      3.6%
 EFFECTIVE MASS      3.5169
 FORCE CONSTANT      0.2799

 VIBRATION         40   40A           ATOM PAIR      ENERGY CONTRIBUTION    RADIAL
 FREQUENCY          1180.81         C  5 -- H 20         +28.4% ( 61.4%)     10.8%
 TRANSITION DIPOLE   0.4522         C  5 -- O  6         +13.2% ( 41.8%)     88.6%
 TRAVEL (Ang.)       0.3489         C  3 -- H 19         +12.1% ( 40.1%)      3.8%
 REDUCED MASS        0.4690         C  3 -- C  5          +7.4% ( 31.4%)     57.8%
 EFFECTIVE MASS      4.8940
 FORCE CONSTANT      0.3853

 VIBRATION         41   41A           ATOM PAIR      ENERGY CONTRIBUTION    RADIAL
 FREQUENCY          1195.73         C  7 -- H 21         +22.4% ( 56.9%)      2.5%
 TRANSITION DIPOLE   0.2250         C  9 -- H 22         +11.4% ( 40.5%)      0.2%
 TRAVEL (Ang.)       0.4462         C  1 -- H 18          +8.7% ( 35.4%)      1.8%
 REDUCED MASS        0.2832         C  7 -- C  9          +6.6% ( 30.8%)     77.8%
 EFFECTIVE MASS      4.4326
 FORCE CONSTANT      0.2386

 VIBRATION         42   42A           ATOM PAIR      ENERGY CONTRIBUTION    RADIAL
 FREQUENCY          1203.69         C  3 -- H 19         +16.1% ( 49.7%)      1.6%
 TRANSITION DIPOLE   0.6529         C  7 -- H 21         +10.7% ( 40.5%)      0.0%
 TRAVEL (Ang.)       0.3549         C  9 -- O 10         +10.3% ( 39.9%)     83.2%
 REDUCED MASS        0.4447         C  9 -- H 22          +9.7% ( 38.6%)     14.6%
 EFFECTIVE MASS      5.4525
 FORCE CONSTANT      0.3796

 VIBRATION         43   43A           ATOM PAIR      ENERGY CONTRIBUTION    RADIAL
 FREQUENCY          1216.47         C  7 -- H 21         +18.8% ( 51.2%)      0.6%
 TRANSITION DIPOLE   0.3144         C  5 -- H 20          +9.1% ( 35.7%)      2.2%
 TRAVEL (Ang.)       0.3841         C  3 -- H 19          +7.8% ( 33.1%)      1.1%
 REDUCED MASS        0.3758         C  9 -- O 10          +7.7% ( 32.8%)     95.3%
 EFFECTIVE MASS      5.3015
 FORCE CONSTANT      0.3276

 VIBRATION         44   44A           ATOM PAIR      ENERGY CONTRIBUTION    RADIAL
 FREQUENCY          1227.40         C  9 -- H 22         +15.9% ( 49.6%)      0.6%
 TRANSITION DIPOLE   0.7531         C  5 -- H 20         +14.9% ( 47.9%)      0.5%
 TRAVEL (Ang.)       0.4387         C  3 -- H 19          +9.5% ( 38.4%)      0.4%
 REDUCED MASS        0.2854         C  1 -- H 18          +6.7% ( 32.1%)      0.0%
 EFFECTIVE MASS      4.1342
 FORCE CONSTANT      0.2533

 VIBRATION         45   45A           ATOM PAIR      ENERGY CONTRIBUTION    RADIAL
 FREQUENCY          1233.28         C  7 -- H 21         +14.6% ( 47.3%)      0.0%
 TRANSITION DIPOLE   0.3916         C  9 -- H 22         +11.3% ( 41.6%)      0.3%
 TRAVEL (Ang.)       0.4118         C 11 -- H 23          +8.3% ( 35.6%)      0.3%
 REDUCED MASS        0.3224         C  7 -- C  9          +7.6% ( 34.2%)      0.1%
 EFFECTIVE MASS      4.3734
 FORCE CONSTANT      0.2889

 VIBRATION         46   46A           ATOM PAIR      ENERGY CONTRIBUTION    RADIAL
 FREQUENCY          1242.62         C  1 -- H 18         +18.0% ( 55.6%)      0.0%
 TRANSITION DIPOLE   0.5786         C  5 -- H 20         +17.4% ( 54.6%)      0.2%
 TRAVEL (Ang.)       0.2965         C  1 -- C  3         +10.1% ( 41.6%)     56.7%
 REDUCED MASS        0.6173         C  1 -- O  2          +7.5% ( 35.9%)     77.6%
 EFFECTIVE MASS      5.4222
 FORCE CONSTANT      0.5616

 VIBRATION         47   47A           ATOM PAIR      ENERGY CONTRIBUTION    RADIAL
 FREQUENCY          1249.53         C  9 -- H 22         +18.2% ( 52.1%)      0.7%
 TRANSITION DIPOLE   0.2268         C 11 -- H 23         +12.0% ( 42.4%)      2.1%
 TRAVEL (Ang.)       0.3663         C  7 -- H 21          +9.7% ( 38.1%)      2.3%
 REDUCED MASS        0.4022         C  7 -- C  9          +8.4% ( 35.4%)      6.4%
 EFFECTIVE MASS      4.5133
 FORCE CONSTANT      0.3700

 VIBRATION         48   48A           ATOM PAIR      ENERGY CONTRIBUTION    RADIAL
 FREQUENCY          1265.01         C 11 -- H 24         +31.3% ( 57.8%)      0.0%
 TRANSITION DIPOLE   0.2756         C 11 -- H 23         +31.1% ( 57.7%)      0.6%
 TRAVEL (Ang.)       0.3737         C  7 -- C  9          +6.3% ( 25.9%)      0.1%
 REDUCED MASS        0.3817         C  9 -- H 22          +5.8% ( 24.9%)      5.9%
 EFFECTIVE MASS      2.3549
 FORCE CONSTANT      0.3599

 VIBRATION         49   49A           ATOM PAIR      ENERGY CONTRIBUTION    RADIAL
 FREQUENCY          1277.73         C  9 -- H 22         +18.2% ( 54.8%)      0.0%
 TRANSITION DIPOLE   0.4326         C 11 -- H 23         +16.5% ( 52.3%)      0.0%
 TRAVEL (Ang.)       0.2609         C  9 -- C 11         +14.1% ( 48.3%)     42.4%
 REDUCED MASS        0.7756         C 11 -- H 24         +13.5% ( 47.2%)      1.9%
 EFFECTIVE MASS      5.1090
 FORCE CONSTANT      0.7460

 VIBRATION         50   50A           ATOM PAIR      ENERGY CONTRIBUTION    RADIAL
 FREQUENCY          1335.16         O  4 -- H 14         +27.2% ( 64.2%)     14.0%
 TRANSITION DIPOLE   0.2291         C  3 -- C  5         +15.1% ( 47.7%)     89.7%
 TRAVEL (Ang.)       0.2058         C  3 -- H 19         +14.7% ( 47.3%)      0.7%
 REDUCED MASS        1.1920         C  3 -- O  4         +12.8% ( 44.1%)      7.1%
 EFFECTIVE MASS      5.1803         C  1 -- C  3         +12.8% ( 43.9%)     27.8%
 FORCE CONSTANT      1.2520

 VIBRATION         51   51A           ATOM PAIR      ENERGY CONTRIBUTION    RADIAL
 FREQUENCY          1340.83         O  2 -- H 13         +16.2% ( 46.5%)     21.9%
 TRANSITION DIPOLE   0.2781         O  6 -- H 15         +15.0% ( 44.7%)     14.6%
 TRAVEL (Ang.)       0.3041         C  5 -- H 20          +9.2% ( 35.1%)      0.2%
 REDUCED MASS        0.5438         C  5 -- C  7          +9.1% ( 34.8%)     88.9%
 EFFECTIVE MASS      4.5148
 FORCE CONSTANT      0.5760

 VIBRATION         52   52A           ATOM PAIR      ENERGY CONTRIBUTION    RADIAL
 FREQUENCY          1344.09         O 12 -- H 17         +45.4% ( 67.4%)     14.8%
 TRANSITION DIPOLE   0.3249         C 11 -- H 24         +19.9% ( 44.7%)     15.4%
 TRAVEL (Ang.)       0.3408         O  2 -- H 13          +6.5% ( 25.6%)     23.0%
 REDUCED MASS        0.4321         C 11 -- O 12          +6.4% ( 25.3%)      2.9%
 EFFECTIVE MASS      2.8631
 FORCE CONSTANT      0.4599

 VIBRATION         53   53A           ATOM PAIR      ENERGY CONTRIBUTION    RADIAL
 FREQUENCY          1350.91         C  3 -- C  5         +13.1% ( 44.3%)     60.7%
 TRANSITION DIPOLE   0.5472         O  6 -- H 15         +12.6% ( 43.4%)     13.3%
 TRAVEL (Ang.)       0.2590         O  2 -- H 13         +11.5% ( 41.4%)     21.9%
 REDUCED MASS        0.7442         C  5 -- H 20         +10.2% ( 39.1%)      0.0%
 EFFECTIVE MASS      5.3666
 FORCE CONSTANT      0.8002

 VIBRATION         54   54A           ATOM PAIR      ENERGY CONTRIBUTION    RADIAL
 FREQUENCY          1377.48         O  8 -- H 16         +36.5% ( 72.8%)     14.5%
 TRANSITION DIPOLE   0.5584         C  7 -- C  9         +16.2% ( 48.5%)     93.0%
 TRAVEL (Ang.)       0.1872         C  7 -- H 21         +14.2% ( 45.3%)      0.1%
 REDUCED MASS        1.3976         C  7 -- O  8         +13.7% ( 44.6%)      8.4%
 EFFECTIVE MASS      4.8278         C  5 -- C  7         +12.2% ( 42.1%)     33.1%
 FORCE CONSTANT      1.5624

 VIBRATION         55   55A           ATOM PAIR      ENERGY CONTRIBUTION    RADIAL
 FREQUENCY          2522.23         O  8 -- H 16         +98.1% ( 99.1%)     97.5%
 TRANSITION DIPOLE   1.2767         O  6 -- H 15          +0.8% (  8.8%)     98.9%
 TRAVEL (Ang.)       0.1703         C  7 -- O  8          +0.3% (  5.9%)     11.1%
 REDUCED MASS        0.9213         O 12 -- H 17          +0.2% (  4.9%)     98.5%
 EFFECTIVE MASS      1.3247
 FORCE CONSTANT      3.4532

 VIBRATION         56   56A           ATOM PAIR      ENERGY CONTRIBUTION    RADIAL
 FREQUENCY          2535.83         O  6 -- H 15         +78.1% ( 88.5%)     98.0%
 TRANSITION DIPOLE   1.1548         O  4 -- H 14         +20.3% ( 45.1%)     98.2%
 TRAVEL (Ang.)       0.2066         O  2 -- H 13          +0.6% (  7.5%)     97.3%
 REDUCED MASS        0.6232         O  8 -- H 16          +0.3% (  5.6%)     96.4%
 EFFECTIVE MASS      1.3243
 FORCE CONSTANT      2.3612

 VIBRATION         57   57A           ATOM PAIR      ENERGY CONTRIBUTION    RADIAL
 FREQUENCY          2539.65         O  4 -- H 14         +66.4% ( 81.5%)     98.1%
 TRANSITION DIPOLE   1.5514         O  2 -- H 13         +18.2% ( 42.7%)     97.8%
 TRAVEL (Ang.)       0.2372         O  6 -- H 15         +13.9% ( 37.4%)     97.8%
 REDUCED MASS        0.4717         O 12 -- H 17          +0.3% (  5.8%)     98.5%
 EFFECTIVE MASS      1.3195
 FORCE CONSTANT      1.7927

 VIBRATION         58   58A           ATOM PAIR      ENERGY CONTRIBUTION    RADIAL
 FREQUENCY          2545.17         O  2 -- H 13         +78.8% ( 88.8%)     97.5%
 TRANSITION DIPOLE   1.2939         O  4 -- H 14         +11.4% ( 33.8%)     97.8%
 TRAVEL (Ang.)       0.2083         O  6 -- H 15          +5.6% ( 23.7%)     97.6%
 REDUCED MASS        0.6107         O 12 -- H 17          +2.8% ( 16.8%)     98.3%
 EFFECTIVE MASS      1.3059
 FORCE CONSTANT      2.3308

 VIBRATION         59   59A           ATOM PAIR      ENERGY CONTRIBUTION    RADIAL
 FREQUENCY          2552.45         O 12 -- H 17         +94.3% ( 97.3%)     98.2%
 TRANSITION DIPOLE   1.0079         O  2 -- H 13          +1.5% ( 12.2%)     97.1%
 TRAVEL (Ang.)       0.1759         C 11 -- H 23          +1.1% ( 10.3%)     89.9%
 REDUCED MASS        0.8539         O  4 -- H 14          +0.8% (  9.0%)     97.9%
 EFFECTIVE MASS      1.3113
 FORCE CONSTANT      3.2776

 VIBRATION         60   60A           ATOM PAIR      ENERGY CONTRIBUTION    RADIAL
 FREQUENCY          2657.62         C 11 -- H 23         +54.6% ( 76.2%)     98.7%
 TRANSITION DIPOLE   0.6602         C 11 -- H 24         +33.4% ( 59.6%)     97.1%
 TRAVEL (Ang.)       0.2427         C  9 -- H 22          +6.9% ( 27.0%)    100.0%
 REDUCED MASS        0.4307         O 12 -- H 17          +1.4% ( 12.1%)     97.6%
 EFFECTIVE MASS      1.4597
 FORCE CONSTANT      1.7924

 VIBRATION         61   61A           ATOM PAIR      ENERGY CONTRIBUTION    RADIAL
 FREQUENCY          2660.54         C  7 -- H 21         +81.4% ( 91.2%)    100.0%
 TRANSITION DIPOLE   0.5102         C  9 -- H 22          +9.3% ( 30.8%)     99.7%
 TRAVEL (Ang.)       0.1962         C  5 -- H 20          +5.0% ( 22.6%)     99.4%
 REDUCED MASS        0.6583         C  3 -- H 19          +1.5% ( 12.5%)     99.9%
 EFFECTIVE MASS      1.3392
 FORCE CONSTANT      2.7454

 VIBRATION         62   62A           ATOM PAIR      ENERGY CONTRIBUTION    RADIAL
 FREQUENCY          2665.40         C  3 -- H 19         +31.4% ( 56.8%)    100.0%
 TRANSITION DIPOLE   0.3849         C  5 -- H 20         +22.0% ( 47.6%)    100.0%
 TRAVEL (Ang.)       0.3382         C  1 -- H 18         +21.4% ( 46.9%)     99.9%
 REDUCED MASS        0.2212         C  9 -- H 22         +17.6% ( 42.5%)    100.0%
 EFFECTIVE MASS      1.3243
 FORCE CONSTANT      0.9257

 VIBRATION         63   63A           ATOM PAIR      ENERGY CONTRIBUTION    RADIAL
 FREQUENCY          2669.93         C  9 -- H 22         +57.0% ( 76.3%)    100.0%
 TRANSITION DIPOLE   0.4710         C  1 -- H 18         +15.7% ( 40.1%)     99.9%
 TRAVEL (Ang.)       0.2635         C  3 -- H 19          +9.9% ( 31.8%)     99.9%
 REDUCED MASS        0.3637         C  7 -- H 21          +9.3% ( 30.9%)     99.8%
 EFFECTIVE MASS      1.3406
 FORCE CONSTANT      1.5274

 VIBRATION         64   64A           ATOM PAIR      ENERGY CONTRIBUTION    RADIAL
 FREQUENCY          2672.75         C  5 -- H 20         +47.7% ( 69.8%)    100.0%
 TRANSITION DIPOLE   0.3532         C  1 -- H 18         +38.7% ( 62.8%)    100.0%
 TRAVEL (Ang.)       0.2600         C  9 -- H 22          +5.1% ( 22.7%)     99.9%
 REDUCED MASS        0.3732         C  7 -- H 21          +4.9% ( 22.3%)     99.7%
 EFFECTIVE MASS      1.3442
 FORCE CONSTANT      1.5707

 VIBRATION         65   65A           ATOM PAIR      ENERGY CONTRIBUTION    RADIAL
 FREQUENCY          2686.02         C  3 -- H 19         +53.3% ( 73.5%)    100.0%
 TRANSITION DIPOLE   0.9486         C  5 -- H 20         +22.0% ( 47.2%)     99.9%
 TRAVEL (Ang.)       0.2610         C  1 -- H 18         +21.2% ( 46.4%)     99.9%
 REDUCED MASS        0.3686         C  1 -- C  3          +0.6% (  7.5%)      0.9%
 EFFECTIVE MASS      1.3745
 FORCE CONSTANT      1.5667

 VIBRATION         66   66A           ATOM PAIR      ENERGY CONTRIBUTION    RADIAL
 FREQUENCY          2720.43         C 11 -- H 24         +58.9% ( 75.6%)     97.5%
 TRANSITION DIPOLE   0.5763         C 11 -- H 23         +39.0% ( 61.6%)     94.7%
 TRAVEL (Ang.)       0.2252         C  9 -- H 22          +1.0% ( 10.0%)     94.7%
 REDUCED MASS        0.4890         C 11 -- O 12          +0.5% (  6.8%)     15.9%
 EFFECTIVE MASS      1.2309
 FORCE CONSTANT      2.1321

           FORCE CONSTANT IN CARTESIAN COORDINATES (Millidynes/A)

    ATOM   CHEMICAL       X               Y               Z
   NUMBER   SYMBOL  FORCE CONSTANT  FORCE CONSTANT  FORCE CONSTANT

      1       C        7.383398        6.492123        7.344488
      2       O        6.548379        0.631673        4.073585
      3       C        7.598154        6.771163        7.174246
      4       O        4.088830        1.285691        5.400069
      5       C        6.999169        7.236654        7.545281
      6       O        1.416985        6.243038        3.151471
      7       C        6.829819        7.840752        6.945342
      8       O        1.486459        5.181259        4.132434
      9       C        6.657518        7.115931        7.143136
     10       O        6.057376        2.245307        4.998721
     11       C        6.759178        6.948865        6.564407
     12       O        3.171619        6.464809        1.262407
     13       H        1.546339        0.065007        2.912410
     14       H        3.095989        0.197977        1.234142
     15       H        0.386087        2.281162        1.863692
     16       H        0.275717        3.554328        0.746422
     17       H        2.001448        1.951812        0.643644
     18       H        1.055374        1.651502        2.779418
     19       H        1.665291        1.825931        2.018028
     20       H        1.733583        1.134192        2.655107
     21       H        3.918250        0.758523        0.830623
     22       H        1.619917        1.952468        1.960606
     23       H        3.316235        0.842059        1.259025
     24       H        2.196571        1.316066        1.964099

 **********************
 *                    *
 * JOB ENDED NORMALLY *
 *                    *
 **********************



 TOTAL JOB TIME:             3.65 SECONDS

 == MOPAC DONE ==
